    3    3   50    1
  0.8306713E+01  0.3032935E-09  0.3033191E-09  0.3129293E-09  0.5000000E-15
  1.000000000000000E-004
  CAR 
 unknown system                          
     10   1098     12
 
  0.0000000E+00  0.0000000E+00  0.0000000E+00  0.2441406E-03
    1       -6.990766   1.000000
    2        3.746689   1.000000
    3        3.748602   1.000000
    4        4.518999   1.000000
    5        4.724701   1.000000
    6        8.539126   0.000000
    7        8.545888   0.000000
    8       10.574378   0.000000
    9       10.606926   0.000000
   10       12.249479   0.000000
   11       12.266445   0.000000
   12       13.459535   0.000000
 
  0.6250000E-01 -0.1526184E-16  0.1084202E-18  0.9765625E-03
    1       -6.916796   1.000000
    2        3.535580   1.000000
    3        3.739950   1.000000
    4        4.547638   1.000000
    5        4.647483   1.000000
    6        8.518857   0.000000
    7        8.693441   0.000000
    8       10.211183   0.000000
    9       10.253178   0.000000
   10       12.659869   0.000000
   11       12.792556   0.000000
   12       13.692931   0.000000
 
  0.1250000E+00 -0.3052368E-16  0.2168404E-18  0.9765625E-03
    1       -6.696814   1.000000
    2        2.952931   1.000000
    3        3.712962   1.000000
    4        4.443413   1.000000
    5        4.637420   1.000000
    6        8.457163   0.000000
    7        9.077769   0.000000
    8        9.590967   0.000000
    9        9.745434   0.000000
   10       13.293176   0.000000
   11       13.882360   0.000000
   12       14.414377   0.000000
 
  0.1875000E+00 -0.7623297E-17  0.0000000E+00  0.9765625E-03
    1       -6.336491   1.000000
    2        2.126843   1.000000
    3        3.655969   1.000000
    4        4.207340   1.000000
    5        4.716378   1.000000
    6        8.366548   0.000000
    7        9.069436   0.000000
    8        9.356587   0.000000
    9        9.642405   0.000000
   10       14.110306   0.000000
   11       15.136260   0.000000
   12       16.319805   0.000000
 
  0.2500000E+00 -0.6104736E-16  0.4336809E-18  0.9765625E-03
    1       -5.844679   1.000000
    2        1.171600   1.000000
    3        3.567754   1.000000
    4        3.985530   1.000000
    5        4.715172   1.000000
    6        8.262696   0.000000
    7        8.871452   0.000000
    8        9.178300   0.000000
    9       10.117085   0.000000
   10       14.118560   0.000000
   11       14.267896   0.000000
   12       16.532860   0.000000
 
  0.3125000E+00 -0.4508926E-16  0.4336809E-18  0.9765625E-03
    1       -5.232659   1.000000
    2        0.161804   1.000000
    3        3.464544   1.000000
    4        3.803390   1.000000
    5        4.603529   1.000000
    6        8.162153   0.000000
    7        8.989543   0.000000
    8        9.145590   0.000000
    9       10.416989   0.000000
   10       13.960183   0.000000
   11       14.366836   0.000000
   12       15.825428   0.000000
 
  0.3750000E+00 -0.1524659E-16  0.0000000E+00  0.9765625E-03
    1       -4.513469   1.000000
    2       -0.856542   1.000000
    3        3.371058   1.000000
    4        3.669612   1.000000
    5        4.438177   1.000000
    6        8.078326   0.000000
    7        9.200945   0.000000
    8        9.327363   0.000000
    9       10.465129   0.000000
   10       14.018607   0.000000
   11       14.476532   0.000000
   12       15.454286   0.000000
 
  0.4375000E+00 -0.4091508E-16  0.0000000E+00  0.9765625E-03
    1       -3.701742   1.000000
    2       -1.852561   1.000000
    3        3.307013   1.000000
    4        3.588514   1.000000
    5        4.302467   1.000000
    6        8.022889   0.000000
    7        9.275105   0.000000
    8        9.687072   0.000000
    9       10.386245   0.000000
   10       14.224719   0.000000
   11       14.458478   0.000000
   12       15.177046   0.000000
 
  0.5000000E+00 -0.1220947E-15  0.8673617E-18  0.4882812E-03
    1       -2.873860   1.000000
    2       -2.742572   1.000000
    3        3.284299   1.000000
    4        3.561546   1.000000
    5        4.251372   1.000000
    6        8.003543   0.000000
    7        9.307613   0.000000
    8        9.846726   0.000000
    9       10.338556   0.000000
   10       14.328582   0.000000
   11       14.407824   0.000000
   12       15.093268   0.000000
 
  0.0000000E+00  0.6250000E-01  0.4336809E-18  0.4882812E-03
    1       -6.916748   1.000000
    2        3.533756   1.000000
    3        3.742236   1.000000
    4        4.540207   1.000000
    5        4.654232   1.000000
    6        8.525144   0.000000
    7        8.684739   0.000000
    8       10.204088   0.000000
    9       10.266302   0.000000
   10       12.662595   0.000000
   11       12.784942   0.000000
   12       13.694316   0.000000
 
  0.6250000E-01  0.6250000E-01  0.0000000E+00  0.9765625E-03
    1       -6.769705   1.000000
    2        3.159764   1.000000
    3        3.686825   1.000000
    4        4.497241   1.000000
    5        4.633021   1.000000
    6        8.467096   0.000000
    7        8.964667   0.000000
    8        9.768034   0.000000
    9        9.862328   0.000000
   10       13.236079   0.000000
   11       13.421737   0.000000
   12       14.211096   0.000000
 
  0.1250000E+00  0.6250000E-01  0.4336809E-18  0.9765625E-03
    1       -6.479465   1.000000
    2        2.496128   1.000000
    3        3.548364   1.000000
    4        4.298327   1.000000
    5        4.767046   1.000000
    6        8.352148   0.000000
    7        9.227710   0.000000
    8        9.374734   0.000000
    9        9.580334   0.000000
   10       13.822066   0.000000
   11       14.355544   0.000000
   12       15.253893   0.000000
 
  0.1875000E+00  0.6250000E-01  0.4336809E-18  0.9765625E-03
    1       -6.053222   1.000000
    2        1.638753   1.000000
    3        3.359947   1.000000
    4        4.081327   1.000000
    5        4.910741   1.000000
    6        8.200413   0.000000
    7        8.827823   0.000000
    8        9.301460   0.000000
    9       10.036347   0.000000
   10       14.236611   0.000000
   11       15.342217   0.000000
   12       16.173581   0.000000
 
  0.2500000E+00  0.6250000E-01  0.0000000E+00  0.9765625E-03
    1       -5.501007   1.000000
    2        0.678717   1.000000
    3        3.150923   1.000000
    4        3.891805   1.000000
    5        4.976318   1.000000
    6        8.036911   0.000000
    7        8.684092   0.000000
    8        9.312644   0.000000
    9       10.502487   0.000000
   10       14.005340   0.000000
   11       14.463011   0.000000
   12       16.053068   0.000000
 
  0.3125000E+00  0.6250000E-01  0.0000000E+00  0.9765625E-03
    1       -4.834986   1.000000
    2       -0.322017   1.000000
    3        2.953993   1.000000
    4        3.750090   1.000000
    5        4.940294   1.000000
    6        7.881567   0.000000
    7        8.794373   0.000000
    8        9.444029   0.000000
    9       10.743831   0.000000
   10       13.906395   0.000000
   11       14.610960   0.000000
   12       15.710345   0.000000
 
  0.3750000E+00  0.6250000E-01  0.8673617E-18  0.9765625E-03
    1       -4.068904   1.000000
    2       -1.322455   1.000000
    3        2.801400   1.000000
    4        3.660560   1.000000
    5        4.857677   1.000000
    6        7.754145   0.000000
    7        9.025743   0.000000
    8        9.625982   0.000000
    9       10.767023   0.000000
   10       14.081604   0.000000
   11       14.633089   0.000000
   12       15.424396   0.000000
 
  0.4375000E+00  0.6250000E-01  0.8673617E-18  0.9765625E-03
    1       -3.218916   1.000000
    2       -2.292505   1.000000
    3        2.718319   1.000000
    4        3.618071   1.000000
    5        4.798130   1.000000
    6        7.681199   0.000000
    7        9.196006   0.000000
    8        9.766369   0.000000
    9       10.725784   0.000000
   10       14.268668   0.000000
   11       14.569751   0.000000
   12       15.288659   0.000000
 
  0.5000000E+00  0.6250000E-01  0.8673617E-18  0.9765625E-03
    1       -3.219437   1.000000
    2       -2.291948   1.000000
    3        2.718435   1.000000
    4        3.616797   1.000000
    5        4.799510   1.000000
    6        7.681377   0.000000
    7        9.199312   0.000000
    8        9.760344   0.000000
    9       10.728502   0.000000
   10       14.269922   0.000000
   11       14.564750   0.000000
   12       15.291738   0.000000
 
 -0.4375000E+00  0.6250000E-01 -0.4336809E-18  0.9765625E-03
    1       -4.069377   1.000000
    2       -1.321855   1.000000
    3        2.802179   1.000000
    4        3.656626   1.000000
    5        4.861230   1.000000
    6        7.755710   0.000000
    7        9.032911   0.000000
    8        9.611170   0.000000
    9       10.773875   0.000000
   10       14.080525   0.000000
   11       14.625774   0.000000
   12       15.430672   0.000000
 
 -0.3750000E+00  0.6250000E-01  0.4336809E-18  0.9765625E-03
    1       -4.835425   1.000000
    2       -0.321393   1.000000
    3        2.956542   1.000000
    4        3.743095   1.000000
    5        4.944736   1.000000
    6        7.887774   0.000000
    7        8.797923   0.000000
    8        9.427204   0.000000
    9       10.752316   0.000000
   10       13.900893   0.000000
   11       14.608970   0.000000
   12       15.710264   0.000000
 
 -0.3125000E+00  0.6250000E-01 -0.2168404E-18  0.9765625E-03
    1       -5.501393   1.000000
    2        0.679271   1.000000
    3        3.156271   1.000000
    4        3.881645   1.000000
    5        4.980522   1.000000
    6        8.051668   0.000000
    7        8.677346   0.000000
    8        9.297692   0.000000
    9       10.510462   0.000000
   10       13.990341   0.000000
   11       14.473629   0.000000
   12       16.058341   0.000000
 
 -0.2500000E+00  0.6250000E-01 -0.2168404E-18  0.9765625E-03
    1       -6.053541   1.000000
    2        1.638966   1.000000
    3        3.367376   1.000000
    4        4.070049   1.000000
    5        4.913995   1.000000
    6        8.219445   0.000000
    7        8.811174   0.000000
    8        9.292349   0.000000
    9       10.042408   0.000000
   10       14.160933   0.000000
   11       14.480266   0.000000
   12       15.669602   0.000000
 
 -0.1875000E+00  0.6250000E-01  0.2168404E-18  0.9765625E-03
    1       -6.479700   1.000000
    2        2.495871   1.000000
    3        3.554468   1.000000
    4        4.291483   1.000000
    5        4.767873   1.000000
    6        8.365348   0.000000
    7        9.173862   0.000000
    8        9.461583   0.000000
    9        9.531145   0.000000
   10       13.798624   0.000000
   11       14.475652   0.000000
   12       15.253529   0.000000
 
 -0.1250000E+00  0.6250000E-01  0.0000000E+00  0.4882812E-03
    1       -6.769850   1.000000
    2        3.160016   1.000000
    3        3.687972   1.000000
    4        4.505869   1.000000
    5        4.623222   1.000000
    6        8.469690   0.000000
    7        8.966937   0.000000
    8        9.793378   0.000000
    9        9.827086   0.000000
   10       13.223967   0.000000
   11       13.441053   0.000000
   12       14.204688   0.000000
 
  0.0000000E+00  0.1250000E+00  0.8673617E-18  0.4882812E-03
    1       -6.696623   1.000000
    2        2.950557   1.000000
    3        3.718120   1.000000
    4        4.429881   1.000000
    5        4.647271   1.000000
    6        8.467058   0.000000
    7        9.042088   0.000000
    8        9.615043   0.000000
    9        9.755454   0.000000
   10       13.282836   0.000000
   11       13.879413   0.000000
   12       14.420379   0.000000
 
  0.6250000E-01  0.1250000E+00  0.8673617E-18  0.9765625E-03
    1       -6.479326   1.000000
    2        2.494532   1.000000
    3        3.553529   1.000000
    4        4.290929   1.000000
    5        4.770005   1.000000
    6        8.361075   0.000000
    7        9.164450   0.000000
    8        9.429430   0.000000
    9        9.585226   0.000000
   10       13.795161   0.000000
   11       14.404652   0.000000
   12       15.162373   0.000000
 
  0.1250000E+00  0.1250000E+00  0.0000000E+00  0.9765625E-03
    1       -6.123070   1.000000
    2        1.876875   1.000000
    3        3.159778   1.000000
    4        4.117966   1.000000
    5        5.038503   1.000000
    6        8.139887   0.000000
    7        8.797736   0.000000
    8        9.357166   0.000000
    9       10.055590   0.000000
   10       14.459434   0.000000
   11       14.703250   0.000000
   12       14.903012   0.000000
 
  0.1875000E+00  0.1250000E+00  0.0000000E+00  0.9765625E-03
    1       -5.636122   1.000000
    2        1.106466   1.000000
    3        2.714991   1.000000
    4        3.960434   1.000000
    5        5.336598   1.000000
    6        7.854303   0.000000
    7        8.460080   0.000000
    8        9.422824   0.000000
    9       10.670975   0.000000
   10       14.023395   0.000000
   11       14.938311   0.000000
   12       15.819227   0.000000
 
  0.2500000E+00  0.1250000E+00  0.8673617E-18  0.9765625E-03
    1       -5.029350   1.000000
    2        0.217073   1.000000
    3        2.327903   1.000000
    4        3.849290   1.000000
    5        5.549866   1.000000
    6        7.552679   0.000000
    7        8.344960   0.000000
    8        9.561284   0.000000
    9       11.189917   0.000000
   10       13.767069   0.000000
   11       15.063660   0.000000
   12       15.993156   0.000000
 
  0.3125000E+00  0.1250000E+00  0.8673617E-18  0.9765625E-03
    1       -4.315672   1.000000
    2       -0.734152   1.000000
    3        2.038605   1.000000
    4        3.788940   1.000000
    5        5.623336   1.000000
    6        7.276663   0.000000
    7        8.502902   0.000000
    8        9.669295   0.000000
    9       11.456544   0.000000
   10       13.843977   0.000000
   11       15.059988   0.000000
   12       17.052323   0.000000
 
  0.3750000E+00  0.1250000E+00  0.8673617E-18  0.9765625E-03
    1       -3.509977   1.000000
    2       -1.695762   1.000000
    3        1.860814   1.000000
    4        3.765874   1.000000
    5        5.612471   1.000000
    6        7.077595   0.000000
    7        8.809791   0.000000
    8        9.667805   0.000000
    9       11.513023   0.000000
   10       14.096917   0.000000
   11       14.979013   0.000000
   12       15.807788   0.000000
 
  0.4375000E+00  0.1250000E+00  0.1734723E-17  0.9765625E-03
    1       -2.642281   1.000000
    2       -2.617422   1.000000
    3        1.800562   1.000000
    4        3.761054   1.000000
    5        5.599290   1.000000
    6        7.004539   0.000000
    7        8.994801   0.000000
    8        9.611804   0.000000
    9       11.512785   0.000000
   10       14.226461   0.000000
   11       14.935012   0.000000
   12       15.795480   0.000000
 
  0.5000000E+00  0.1250000E+00  0.0000000E+00  0.9765625E-03
    1       -3.510973   1.000000
    2       -1.694526   1.000000
    3        1.859894   1.000000
    4        3.765270   1.000000
    5        5.614222   1.000000
    6        7.078786   0.000000
    7        8.813301   0.000000
    8        9.660465   0.000000
    9       11.517332   0.000000
   10       14.095789   0.000000
   11       14.969932   0.000000
   12       15.814893   0.000000
 
 -0.4375000E+00  0.1250000E+00  0.0000000E+00  0.9765625E-03
    1       -4.316578   1.000000
    2       -0.732759   1.000000
    3        2.037381   1.000000
    4        3.787389   1.000000
    5        5.625260   1.000000
    6        7.282709   0.000000
    7        8.503272   0.000000
    8        9.658617   0.000000
    9       11.465399   0.000000
   10       13.837400   0.000000
   11       15.046135   0.000000
   12       15.873774   0.000000
 
 -0.3750000E+00  0.1250000E+00  0.4336809E-18  0.9765625E-03
    1       -5.030156   1.000000
    2        0.218571   1.000000
    3        2.327642   1.000000
    4        3.846049   1.000000
    5        5.551209   1.000000
    6        7.568964   0.000000
    7        8.335777   0.000000
    8        9.549319   0.000000
    9       11.200017   0.000000
   10       13.755285   0.000000
   11       15.061622   0.000000
   12       15.983892   0.000000
 
 -0.3125000E+00  0.1250000E+00 -0.2168404E-18  0.9765625E-03
    1       -5.636810   1.000000
    2        1.107724   1.000000
    3        2.717207   1.000000
    4        3.954783   1.000000
    5        5.338014   1.000000
    6        7.879073   0.000000
    7        8.441002   0.000000
    8        9.411450   0.000000
    9       10.677958   0.000000
   10       14.004147   0.000000
   11       15.043720   0.000000
   12       15.948789   0.000000
 
 -0.2500000E+00  0.1250000E+00  0.0000000E+00  0.4882812E-03
    1       -6.123617   1.000000
    2        1.877728   1.000000
    3        3.164205   1.000000
    4        4.111389   1.000000
    5        5.039692   1.000000
    6        8.159455   0.000000
    7        8.780126   0.000000
    8        9.351314   0.000000
    9       10.055492   0.000000
   10       14.385235   0.000000
   11       14.762914   0.000000
   12       14.813410   0.000000
 
  0.0000000E+00  0.1875000E+00  0.0000000E+00  0.4882812E-03
    1       -6.336078   1.000000
    2        2.124713   1.000000
    3        3.666107   1.000000
    4        4.191830   1.000000
    5        4.722137   1.000000
    6        8.382028   0.000000
    7        9.012753   0.000000
    8        9.383144   0.000000
    9        9.668020   0.000000
   10       13.767319   0.000000
   11       14.985332   0.000000
   12       15.338862   0.000000
 
  0.6250000E-01  0.1875000E+00  0.0000000E+00  0.9765625E-03
    1       -6.052877   1.000000
    2        1.637294   1.000000
    3        3.368151   1.000000
    4        4.069860   1.000000
    5        4.913596   1.000000
    6        8.217448   0.000000
    7        8.803735   0.000000
    8        9.302588   0.000000
    9       10.050574   0.000000
   10       14.150568   0.000000
   11       14.491075   0.000000
   12       15.765802   0.000000
 
  0.1250000E+00  0.1875000E+00  0.1734723E-17  0.9765625E-03
    1       -5.635923   1.000000
    2        1.105969   1.000000
    3        2.716979   1.000000
    4        3.957704   1.000000
    5        5.336562   1.000000
    6        7.864161   0.000000
    7        8.451601   0.000000
    8        9.420840   0.000000
    9       10.675534   0.000000
   10       14.015707   0.000000
   11       14.934533   0.000000
   12       15.802793   0.000000
 
  0.1875000E+00  0.1875000E+00  0.0000000E+00  0.9765625E-03
    1       -5.094235   1.000000
    2        0.510943   1.000000
    3        1.997163   1.000000
    4        3.895210   1.000000
    5        5.815414   1.000000
    6        7.416697   0.000000
    7        8.132370   0.000000
    8        9.601815   0.000000
    9       11.396129   0.000000
   10       13.691560   0.000000
   11       15.578919   0.000000
   12       16.213644   0.000000
 
  0.2500000E+00  0.1875000E+00  0.8673617E-18  0.9765625E-03
    1       -4.439485   1.000000
    2       -0.211051   1.000000
    3        1.413277   1.000000
    4        3.897057   1.000000
    5        6.206744   1.000000
    6        6.955447   0.000000
    7        8.022395   0.000000
    8        9.703588   0.000000
    9       12.019816   0.000000
   10       13.577486   0.000000
   11       15.546554   0.000000
   12       16.410501   0.000000
 
  0.3125000E+00  0.1875000E+00  0.1734723E-17  0.9765625E-03
    1       -3.686314   1.000000
    2       -1.061372   1.000000
    3        1.048367   1.000000
    4        3.946521   1.000000
    5        6.383624   1.000000
    6        6.562703   0.944349
    7        8.236902   0.000000
    8        9.628364   0.000000
    9       12.325142   0.000000
   10       13.786666   0.000000
   11       15.493090   0.000000
   12       16.928087   0.000000
 
  0.3750000E+00  0.1875000E+00  0.0000000E+00  0.9765625E-03
    1       -2.854211   1.000000
    2       -1.962595   1.000000
    3        0.878856   1.000000
    4        3.997190   1.000000
    5        6.329054   1.000000
    6        6.411469   1.000000
    7        8.611487   0.000000
    8        9.398297   0.000000
    9       12.385668   0.000000
   10       14.072098   0.000000
   11       15.477019   0.000000
   12       16.550529   0.000000
 
  0.4375000E+00  0.1875000E+00  0.0000000E+00  0.9765625E-03
    1       -2.855758   1.000000
    2       -1.960732   1.000000
    3        0.877974   1.000000
    4        3.997431   1.000000
    5        6.323824   1.000000
    6        6.417788   1.000000
    7        8.613776   0.000000
    8        9.394967   0.000000
    9       12.387765   0.000000
   10       14.071378   0.000000
   11       15.473535   0.000000
   12       16.553793   0.000000
 
  0.5000000E+00  0.1875000E+00  0.0000000E+00  0.9765625E-03
    1       -3.687682   1.000000
    2       -1.059019   1.000000
    3        1.045942   1.000000
    4        3.947020   1.000000
    5        6.370577   1.000000
    6        6.580239   0.863543
    7        8.238209   0.000000
    8        9.622126   0.000000
    9       12.333578   0.000000
   10       13.780364   0.000000
   11       15.505293   0.000000
   12       18.414752   0.000000
 
 -0.4375000E+00  0.1875000E+00 -0.5421011E-18  0.9765625E-03
    1       -4.440729   1.000000
    2       -0.208291   1.000000
    3        1.410113   1.000000
    4        3.897129   1.000000
    5        6.201234   1.000000
    6        6.972092   0.000000
    7        8.017711   0.000000
    8        9.695274   0.000000
    9       12.032845   0.000000
   10       13.564502   0.000000
   11       15.546403   0.000000
   12       16.517088   0.000000
 
 -0.3750000E+00  0.1875000E+00  0.0000000E+00  0.4882812E-03
    1       -5.095315   1.000000
    2        0.513369   1.000000
    3        1.995084   1.000000
    4        3.893939   1.000000
    5        5.814709   1.000000
    6        7.434754   0.000000
    7        8.121318   0.000000
    8        9.592311   0.000000
    9       11.405105   0.000000
   10       13.679215   0.000000
   11       15.602258   0.000000
   12       16.139650   0.000000
 
  0.0000000E+00  0.2500000E+00  0.1734723E-17  0.4882812E-03
    1       -5.844002   1.000000
    2        1.170274   1.000000
    3        3.582864   1.000000
    4        3.965120   1.000000
    5        4.719481   1.000000
    6        8.282395   0.000000
    7        8.835774   0.000000
    8        9.192853   0.000000
    9       10.128681   0.000000
   10       14.074927   0.000000
   11       14.296058   0.000000
   12       16.294666   0.000000
 
  0.6250000E-01  0.2500000E+00  0.1734723E-17  0.9765625E-03
    1       -5.500419   1.000000
    2        0.678109   1.000000
    3        3.158147   1.000000
    4        3.880851   1.000000
    5        4.978434   1.000000
    6        8.058107   0.000000
    7        8.665839   0.000000
    8        9.308254   0.000000
    9       10.511360   0.000000
   10       13.986404   0.000000
   11       14.463565   0.000000
   12       16.133491   0.000000
 
  0.1250000E+00  0.2500000E+00  0.1734723E-17  0.9765625E-03
    1       -5.028928   1.000000
    2        0.217109   1.000000
    3        2.329269   1.000000
    4        3.846753   1.000000
    5        5.548658   1.000000
    6        7.567999   0.000000
    7        8.333250   0.000000
    8        9.558299   0.000000
    9       11.194144   0.000000
   10       13.758945   0.000000
   11       15.053050   0.000000
   12       16.006431   0.000000
 
  0.1875000E+00  0.2500000E+00  0.0000000E+00  0.9765625E-03
    1       -4.439288   1.000000
    2       -0.210747   1.000000
    3        1.413323   1.000000
    4        3.896676   1.000000
    5        6.202498   1.000000
    6        6.965255   0.000000
    7        8.017033   0.000000
    8        9.702703   0.000000
    9       12.021328   0.000000
   10       13.573800   0.000000
   11       15.579903   0.000000
   12       16.635176   0.000000
 
  0.2500000E+00  0.2500000E+00  0.0000000E+00  0.9765625E-03
    1       -3.745172   1.000000
    2       -0.672267   1.000000
    3        0.597752   1.000000
    4        4.036573   1.000000
    5        6.352064   1.000000
    6        6.839543   0.000000
    7        7.838134   0.000000
    8        9.618119   0.000000
    9       12.811339   0.000000
   10       13.489915   0.000000
   11       15.757221   0.000000
   12       17.258668   0.000000
 
  0.3125000E+00  0.2500000E+00  0.0000000E+00  0.9765625E-03
    1       -2.967665   1.000000
    2       -1.312882   1.000000
    3        0.096515   1.000000
    4        4.229447   1.000000
    5        5.859762   1.000000
    6        7.167720   0.000000
    7        8.039882   0.000000
    8        9.290705   0.000000
    9       13.157274   0.000000
   10       13.746000   0.000000
   11       15.975364   0.000000
   12       17.203334   0.000000
 
  0.3750000E+00  0.2500000E+00  0.0000000E+00  0.9765625E-03
    1       -2.237671   1.000000
    2       -2.019381   1.000000
    3       -0.051008   1.000000
    4        4.340520   1.000000
    5        5.644330   1.000000
    6        7.203447   0.000000
    7        8.399247   0.000000
    8        8.959314   0.000000
    9       13.175932   0.000000
   10       13.980555   0.000000
   11       16.091397   0.000000
   12       17.193314   0.000000
 
  0.4375000E+00  0.2500000E+00  0.1734723E-17  0.9765625E-03
    1       -2.969558   1.000000
    2       -1.309363   1.000000
    3        0.093649   1.000000
    4        4.230290   1.000000
    5        5.858765   1.000000
    6        7.170718   0.000000
    7        8.042249   0.000000
    8        9.286983   0.000000
    9       13.163989   0.000000
   10       13.742082   0.000000
   11       15.976237   0.000000
   12       17.929564   0.000000
 
  0.5000000E+00  0.2500000E+00  0.1734723E-17  0.4882812E-03
    1       -3.746792   1.000000
    2       -0.668512   1.000000
    3        0.593503   1.000000
    4        4.037609   1.000000
    5        6.345227   1.000000
    6        6.851651   0.000000
    7        7.838576   0.000000
    8        9.612754   0.000000
    9       12.829281   0.000000
   10       13.474657   0.000000
   11       15.754882   0.000000
   12       17.196034   0.000000
 
  0.0000000E+00  0.3125000E+00  0.8673617E-18  0.4882812E-03
    1       -5.231719   1.000000
    2        0.161426   1.000000
    3        3.480093   1.000000
    4        3.782773   1.000000
    5        4.606827   1.000000
    6        8.181878   0.000000
    7        8.961160   0.000000
    8        9.156396   0.000000
    9       10.419817   0.000000
   10       13.945508   0.000000
   11       14.361647   0.000000
   12       16.987696   0.000000
 
  0.6250000E-01  0.3125000E+00  0.1734723E-17  0.9765625E-03
    1       -4.834174   1.000000
    2       -0.321712   1.000000
    3        2.958035   1.000000
    4        3.742548   1.000000
    5        4.941902   1.000000
    6        7.899693   0.000000
    7        8.784214   0.000000
    8        9.435491   0.000000
    9       10.746233   0.000000
   10       13.894257   0.000000
   11       14.601956   0.000000
   12       18.153793   0.000000
 
  0.1250000E+00  0.3125000E+00  0.8673617E-18  0.9765625E-03
    1       -4.315081   1.000000
    2       -0.733381   1.000000
    3        2.038937   1.000000
    4        3.787387   1.000000
    5        5.621841   1.000000
    6        7.288248   0.000000
    7        8.495498   0.000000
    8        9.665723   0.000000
    9       11.456466   0.000000
   10       13.836069   0.000000
   11       15.046488   0.000000
   12       15.870802   0.000000
 
  0.1875000E+00  0.3125000E+00  0.0000000E+00  0.9765625E-03
    1       -3.685970   1.000000
    2       -1.060494   1.000000
    3        1.048172   1.000000
    4        3.946422   1.000000
    5        6.368190   1.000000
    6        6.581473   0.855763
    7        8.233528   0.000000
    8        9.626644   0.000000
    9       12.325023   0.000000
   10       13.781658   0.000000
   11       15.485561   0.000000
   12       17.710714   0.000000
 
  0.2500000E+00  0.3125000E+00  0.0000000E+00  0.9765625E-03
    1       -2.967471   1.000000
    2       -1.312402   1.000000
    3        0.096450   1.000000
    4        4.229624   1.000000
    5        5.859274   1.000000
    6        7.168075   0.000000
    7        8.039656   0.000000
    8        9.289637   0.000000
    9       13.159860   0.000000
   10       13.740568   0.000000
   11       15.973313   0.000000
   12       17.280316   0.000000
 
  0.3125000E+00  0.3125000E+00  0.0000000E+00  0.9765625E-03
    1       -2.216164   1.000000
    2       -1.592377   1.000000
    3       -0.624240   1.000000
    4        4.619525   1.000000
    5        5.246982   1.000000
    6        7.903460   0.000000
    7        7.948557   0.000000
    8        8.744922   0.000000
    9       13.676267   0.000000
   10       13.761880   0.000000
   11       16.518572   0.000000
   12       17.146685   0.000000
 
  0.3750000E+00  0.3125000E+00  0.1734723E-17  0.4882812E-03
    1       -2.219181   1.000000
    2       -1.587760   1.000000
    3       -0.626516   1.000000
    4        4.619889   1.000000
    5        5.246822   1.000000
    6        7.903989   0.000000
    7        7.950838   0.000000
    8        8.743085   0.000000
    9       13.662953   0.000000
   10       13.777895   0.000000
   11       16.529900   0.000000
   12       17.131016   0.000000
 
  0.0000000E+00  0.3750000E+00  0.0000000E+00  0.4882812E-03
    1       -4.512332   1.000000
    2       -0.856041   1.000000
    3        3.381180   1.000000
    4        3.655017   1.000000
    5        4.440942   1.000000
    6        8.096405   0.000000
    7        9.209496   0.000000
    8        9.302699   0.000000
    9       10.460127   0.000000
   10       14.006356   0.000000
   11       14.470374   0.000000