<?xml version="1.0" encoding="ISO-8859-1"?>
<modeling>
 <generator>
  <i name="program" type="string">vasp </i>
  <i name="version" type="string">5.4.4.18Apr17-6-g9f103f2a35  </i>
  <i name="subversion" type="string">(build Nov 22 2017 20:28:56) complex            parallel </i>
  <i name="platform" type="string">LinuxIFC </i>
  <i name="date" type="string">2019 09 11 </i>
  <i name="time" type="string">22:46:12 </i>
 </generator>
 <incar>
  <i type="int" name="ISTART">     0</i>
  <i type="string" name="PREC">accurate</i>
  <i type="int" name="IALGO">    48</i>
  <i type="string" name="ALGO"> Very Fast</i>
  <i type="int" name="NSIM">     4</i>
  <i type="int" name="IBRION">     1</i>
  <i name="EDIFF">      0.00000100</i>
  <i type="int" name="NSW">    50</i>
  <i type="int" name="ISIF">     2</i>
  <i type="int" name="ISYM">     2</i>
  <i name="ENCUT">    600.00000000</i>
  <i name="POTIM">      0.50000000</i>
  <i type="logical" name="LPLANE"> T  </i>
  <i type="int" name="ISMEAR">     0</i>
  <i name="SIGMA">      0.05000000</i>
  <i type="logical" name="LWAVE"> F  </i>
  <i type="logical" name="LCHARG"> F  </i>
  <v type="int" name="KPOINT_BSE">    -1     0     0     0</v>
 </incar>
 <structure name="primitive_cell" >
  <crystal>
   <varray name="basis" >
    <v>       3.03293523       0.00000000       0.00000000 </v>
    <v>      -1.51646762       2.62659896      -0.03939898 </v>
    <v>       0.00000000      -0.04838534       3.12891883 </v>
   </varray>
   <i name="volume">     24.92013841 </i>
   <varray name="rec_basis" >
    <v>       0.32971360       0.19040440       0.00294440 </v>
    <v>       0.00000000       0.38080881       0.00588880 </v>
    <v>       0.00000000       0.00479510       0.31967337 </v>
   </varray>
  </crystal>
  <varray name="positions" >
   <v>       0.00000000       0.00000000       0.00000000 </v>
   <v>       0.33333333      -0.33333333      -0.50000000 </v>
   <v>      -0.33333333       0.33333333      -0.50000000 </v>
  </varray>
 </structure>
 <varray name="primitive_index" >
  <v type="int" >        1 </v>
  <v type="int" >        2 </v>
  <v type="int" >        3 </v>
 </varray>
 <kpoints>
  <generation param="Gamma">
   <v type="int" name="divisions">      16       16       16 </v>
   <v name="usershift">      0.00000000       0.00000000       0.00000000 </v>
   <v name="genvec1">      0.06250000       0.00000000       0.00000000 </v>
   <v name="genvec2">      0.00000000       0.06250000       0.00000000 </v>
   <v name="genvec3">      0.00000000       0.00000000       0.06250000 </v>
   <v name="shift">      0.00000000       0.00000000       0.00000000 </v>
  </generation>
  <varray name="kpointlist" >
   <v>       0.00000000       0.00000000       0.00000000 </v>
   <v>       0.06250000      -0.00000000       0.00000000 </v>
   <v>       0.12500000      -0.00000000       0.00000000 </v>
   <v>       0.18750000      -0.00000000       0.00000000 </v>
   <v>       0.25000000      -0.00000000       0.00000000 </v>
   <v>       0.31250000      -0.00000000       0.00000000 </v>
   <v>       0.37500000      -0.00000000       0.00000000 </v>
   <v>       0.43750000      -0.00000000       0.00000000 </v>
   <v>       0.50000000      -0.00000000       0.00000000 </v>
   <v>       0.00000000       0.06250000       0.00000000 </v>
   <v>       0.06250000       0.06250000       0.00000000 </v>
   <v>       0.12500000       0.06250000       0.00000000 </v>
   <v>       0.18750000       0.06250000       0.00000000 </v>
   <v>       0.25000000       0.06250000       0.00000000 </v>
   <v>       0.31250000       0.06250000       0.00000000 </v>
   <v>       0.37500000       0.06250000       0.00000000 </v>
   <v>       0.43750000       0.06250000       0.00000000 </v>
   <v>       0.50000000       0.06250000       0.00000000 </v>
   <v>      -0.43750000       0.06250000      -0.00000000 </v>
   <v>      -0.37500000       0.06250000       0.00000000 </v>
   <v>      -0.31250000       0.06250000      -0.00000000 </v>
   <v>      -0.25000000       0.06250000      -0.00000000 </v>
   <v>      -0.18750000       0.06250000       0.00000000 </v>
   <v>      -0.12500000       0.06250000       0.00000000 </v>
   <v>       0.00000000       0.12500000       0.00000000 </v>
   <v>       0.06250000       0.12500000       0.00000000 </v>
   <v>       0.12500000       0.12500000       0.00000000 </v>
   <v>       0.18750000       0.12500000       0.00000000 </v>
   <v>       0.25000000       0.12500000       0.00000000 </v>
   <v>       0.31250000       0.12500000       0.00000000 </v>
   <v>       0.37500000       0.12500000       0.00000000 </v>
   <v>       0.43750000       0.12500000       0.00000000 </v>
   <v>       0.50000000       0.12500000       0.00000000 </v>
   <v>      -0.43750000       0.12500000       0.00000000 </v>
   <v>      -0.37500000       0.12500000       0.00000000 </v>
   <v>      -0.31250000       0.12500000      -0.00000000 </v>
   <v>      -0.25000000       0.12500000       0.00000000 </v>
   <v>       0.00000000       0.18750000       0.00000000 </v>
   <v>       0.06250000       0.18750000       0.00000000 </v>
   <v>       0.12500000       0.18750000       0.00000000 </v>
   <v>       0.18750000       0.18750000       0.00000000 </v>
   <v>       0.25000000       0.18750000       0.00000000 </v>
   <v>       0.31250000       0.18750000       0.00000000 </v>
   <v>       0.37500000       0.18750000       0.00000000 </v>
   <v>       0.43750000       0.18750000       0.00000000 </v>
   <v>       0.50000000       0.18750000       0.00000000 </v>
   <v>      -0.43750000       0.18750000      -0.00000000 </v>
   <v>      -0.37500000       0.18750000       0.00000000 </v>
   <v>       0.00000000       0.25000000       0.00000000 </v>
   <v>       0.06250000       0.25000000       0.00000000 </v>
   <v>       0.12500000       0.25000000       0.00000000 </v>
   <v>       0.18750000       0.25000000       0.00000000 </v>
   <v>       0.25000000       0.25000000       0.00000000 </v>
   <v>       0.31250000       0.25000000       0.00000000 </v>
   <v>       0.37500000       0.25000000       0.00000000 </v>
   <v>       0.43750000       0.25000000       0.00000000 </v>
   <v>       0.50000000       0.25000000       0.00000000 </v>
   <v>       0.00000000       0.31250000       0.00000000 </v>
   <v>       0.06250000       0.31250000       0.00000000 </v>
   <v>       0.12500000       0.31250000       0.00000000 </v>
   <v>       0.18750000       0.31250000       0.00000000 </v>
   <v>       0.25000000       0.31250000       0.00000000 </v>
   <v>       0.31250000       0.31250000       0.00000000 </v>
   <v>       0.37500000       0.31250000       0.00000000 </v>
   <v>       0.00000000       0.37500000       0.00000000 </v>
   <v>       0.06250000       0.37500000       0.00000000 </v>
   <v>       0.12500000       0.37500000       0.00000000 </v>
   <v>       0.18750000       0.37500000       0.00000000 </v>
   <v>       0.25000000       0.37500000       0.00000000 </v>
   <v>       0.00000000       0.43750000       0.00000000 </v>
   <v>       0.06250000       0.43750000       0.00000000 </v>
   <v>       0.12500000       0.43750000       0.00000000 </v>
   <v>       0.00000000       0.50000000       0.00000000 </v>
   <v>       0.00000000      -0.00000000       0.06250000 </v>
   <v>       0.06250000      -0.00000000       0.06250000 </v>
   <v>       0.12500000      -0.00000000       0.06250000 </v>
   <v>       0.18750000      -0.00000000       0.06250000 </v>
   <v>       0.25000000      -0.00000000       0.06250000 </v>
   <v>       0.31250000      -0.00000000       0.06250000 </v>
   <v>       0.37500000      -0.00000000       0.06250000 </v>
   <v>       0.43750000      -0.00000000       0.06250000 </v>
   <v>       0.50000000      -0.00000000       0.06250000 </v>
   <v>      -0.43750000       0.00000000       0.06250000 </v>
   <v>      -0.37500000       0.00000000       0.06250000 </v>
   <v>      -0.31250000       0.00000000       0.06250000 </v>
   <v>      -0.25000000       0.00000000       0.06250000 </v>
   <v>      -0.18750000       0.00000000       0.06250000 </v>
   <v>      -0.12500000       0.00000000       0.06250000 </v>
   <v>      -0.06250000       0.00000000       0.06250000 </v>
   <v>       0.00000000       0.06250000       0.06250000 </v>
   <v>       0.06250000       0.06250000       0.06250000 </v>
   <v>       0.12500000       0.06250000       0.06250000 </v>
   <v>       0.18750000       0.06250000       0.06250000 </v>
   <v>       0.25000000       0.06250000       0.06250000 </v>
   <v>       0.31250000       0.06250000       0.06250000 </v>
   <v>       0.37500000       0.06250000       0.06250000 </v>
   <v>       0.43750000       0.06250000       0.06250000 </v>
   <v>       0.50000000       0.06250000       0.06250000 </v>
   <v>      -0.43750000       0.06250000       0.06250000 </v>
   <v>      -0.37500000       0.06250000       0.06250000 </v>
   <v>      -0.31250000       0.06250000       0.06250000 </v>
   <v>      -0.25000000       0.06250000       0.06250000 </v>
   <v>      -0.18750000       0.06250000       0.06250000 </v>
   <v>      -0.12500000       0.06250000       0.06250000 </v>
   <v>       0.00000000       0.12500000       0.06250000 </v>
   <v>       0.06250000       0.12500000       0.06250000 </v>
   <v>       0.12500000       0.12500000       0.06250000 </v>
   <v>       0.18750000       0.12500000       0.06250000 </v>
   <v>       0.25000000       0.12500000       0.06250000 </v>
   <v>       0.31250000       0.12500000       0.06250000 </v>
   <v>       0.37500000       0.12500000       0.06250000 </v>
   <v>       0.43750000       0.12500000       0.06250000 </v>
   <v>       0.50000000       0.12500000       0.06250000 </v>
   <v>      -0.43750000       0.12500000       0.06250000 </v>
   <v>      -0.37500000       0.12500000       0.06250000 </v>
   <v>      -0.31250000       0.12500000       0.06250000 </v>
   <v>      -0.25000000       0.12500000       0.06250000 </v>
   <v>      -0.18750000       0.12500000       0.06250000 </v>
   <v>       0.00000000       0.18750000       0.06250000 </v>
   <v>       0.06250000       0.18750000       0.06250000 </v>
   <v>       0.12500000       0.18750000       0.06250000 </v>
   <v>       0.18750000       0.18750000       0.06250000 </v>
   <v>       0.25000000       0.18750000       0.06250000 </v>
   <v>       0.31250000       0.18750000       0.06250000 </v>
   <v>       0.37500000       0.18750000       0.06250000 </v>
   <v>       0.43750000       0.18750000       0.06250000 </v>
   <v>       0.50000000       0.18750000       0.06250000 </v>
   <v>      -0.43750000       0.18750000       0.06250000 </v>
   <v>      -0.37500000       0.18750000       0.06250000 </v>
   <v>      -0.31250000       0.18750000       0.06250000 </v>
   <v>      -0.25000000       0.18750000       0.06250000 </v>
   <v>       0.00000000       0.25000000       0.06250000 </v>
   <v>       0.06250000       0.25000000       0.06250000 </v>
   <v>       0.12500000       0.25000000       0.06250000 </v>
   <v>       0.18750000       0.25000000       0.06250000 </v>
   <v>       0.25000000       0.25000000       0.06250000 </v>
   <v>       0.31250000       0.25000000       0.06250000 </v>
   <v>       0.37500000       0.25000000       0.06250000 </v>
   <v>       0.43750000       0.25000000       0.06250000 </v>
   <v>       0.50000000       0.25000000       0.06250000 </v>
   <v>      -0.43750000       0.25000000       0.06250000 </v>
   <v>      -0.37500000       0.25000000       0.06250000 </v>
   <v>      -0.31250000       0.25000000       0.06250000 </v>
   <v>       0.00000000       0.31250000       0.06250000 </v>
   <v>       0.06250000       0.31250000       0.06250000 </v>
   <v>       0.12500000       0.31250000       0.06250000 </v>
   <v>       0.18750000       0.31250000       0.06250000 </v>
   <v>       0.25000000       0.31250000       0.06250000 </v>
   <v>       0.31250000       0.31250000       0.06250000 </v>
   <v>       0.37500000       0.31250000       0.06250000 </v>
   <v>       0.43750000       0.31250000       0.06250000 </v>
   <v>       0.50000000       0.31250000       0.06250000 </v>
   <v>      -0.43750000       0.31250000       0.06250000 </v>
   <v>      -0.37500000       0.31250000       0.06250000 </v>
   <v>       0.00000000       0.37500000       0.06250000 </v>
   <v>       0.06250000       0.37500000       0.06250000 </v>
   <v>       0.12500000       0.37500000       0.06250000 </v>
   <v>       0.18750000       0.37500000       0.06250000 </v>
   <v>       0.25000000       0.37500000       0.06250000 </v>
   <v>       0.31250000       0.37500000       0.06250000 </v>
   <v>       0.37500000       0.37500000       0.06250000 </v>
   <v>       0.43750000       0.37500000       0.06250000 </v>
   <v>       0.50000000       0.37500000       0.06250000 </v>
   <v>      -0.43750000       0.37500000       0.06250000 </v>
   <v>       0.00000000       0.43750000       0.06250000 </v>
   <v>       0.06250000       0.43750000       0.06250000 </v>
   <v>       0.12500000       0.43750000       0.06250000 </v>
   <v>       0.18750000       0.43750000       0.06250000 </v>
   <v>       0.25000000       0.43750000       0.06250000 </v>
   <v>       0.31250000       0.43750000       0.06250000 </v>
   <v>       0.37500000       0.43750000       0.06250000 </v>
   <v>       0.43750000       0.43750000       0.06250000 </v>
   <v>       0.50000000       0.43750000       0.06250000 </v>
   <v>       0.00000000       0.50000000       0.06250000 </v>
   <v>       0.06250000       0.50000000       0.06250000 </v>
   <v>       0.12500000       0.50000000       0.06250000 </v>
   <v>       0.18750000       0.50000000       0.06250000 </v>
   <v>       0.25000000       0.50000000       0.06250000 </v>
   <v>       0.31250000       0.50000000       0.06250000 </v>
   <v>       0.37500000       0.50000000       0.06250000 </v>
   <v>       0.43750000       0.50000000       0.06250000 </v>
   <v>       0.00000000      -0.43750000       0.06250000 </v>
   <v>       0.06250000      -0.43750000       0.06250000 </v>
   <v>       0.12500000      -0.43750000       0.06250000 </v>
   <v>       0.18750000      -0.43750000       0.06250000 </v>
   <v>       0.25000000      -0.43750000       0.06250000 </v>
   <v>       0.31250000      -0.43750000       0.06250000 </v>
   <v>       0.37500000      -0.43750000       0.06250000 </v>
   <v>       0.00000000      -0.37500000       0.06250000 </v>
   <v>       0.06250000      -0.37500000       0.06250000 </v>
   <v>       0.12500000      -0.37500000       0.06250000 </v>
   <v>       0.18750000      -0.37500000       0.06250000 </v>
   <v>       0.25000000      -0.37500000       0.06250000 </v>
   <v>       0.31250000      -0.37500000       0.06250000 </v>
   <v>       0.00000000      -0.31250000       0.06250000 </v>
   <v>       0.06250000      -0.31250000       0.06250000 </v>
   <v>       0.12500000      -0.31250000       0.06250000 </v>
   <v>       0.18750000      -0.31250000       0.06250000 </v>
   <v>       0.25000000      -0.31250000       0.06250000 </v>
   <v>       0.00000000      -0.25000000       0.06250000 </v>
   <v>       0.06250000      -0.25000000       0.06250000 </v>
   <v>       0.12500000      -0.25000000       0.06250000 </v>
   <v>       0.18750000      -0.25000000       0.06250000 </v>
   <v>       0.00000000      -0.18750000       0.06250000 </v>
   <v>       0.06250000      -0.18750000       0.06250000 </v>
   <v>       0.12500000      -0.18750000       0.06250000 </v>
   <v>       0.00000000      -0.12500000       0.06250000 </v>
   <v>       0.06250000      -0.12500000       0.06250000 </v>
   <v>       0.00000000      -0.06250000       0.06250000 </v>
   <v>       0.00000000      -0.00000000       0.12500000 </v>
   <v>       0.06250000      -0.00000000       0.12500000 </v>
   <v>       0.12500000      -0.00000000       0.12500000 </v>
   <v>       0.18750000      -0.00000000       0.12500000 </v>
   <v>       0.25000000      -0.00000000       0.12500000 </v>
   <v>       0.31250000      -0.00000000       0.12500000 </v>
   <v>       0.37500000      -0.00000000       0.12500000 </v>
   <v>       0.43750000      -0.00000000       0.12500000 </v>
   <v>       0.50000000      -0.00000000       0.12500000 </v>
   <v>      -0.43750000       0.00000000       0.12500000 </v>
   <v>      -0.37500000       0.00000000       0.12500000 </v>
   <v>      -0.31250000       0.00000000       0.12500000 </v>
   <v>      -0.25000000       0.00000000       0.12500000 </v>
   <v>      -0.18750000       0.00000000       0.12500000 </v>
   <v>      -0.12500000       0.00000000       0.12500000 </v>
   <v>      -0.06250000       0.00000000       0.12500000 </v>
   <v>       0.00000000       0.06250000       0.12500000 </v>
   <v>       0.06250000       0.06250000       0.12500000 </v>
   <v>       0.12500000       0.06250000       0.12500000 </v>
   <v>       0.18750000       0.06250000       0.12500000 </v>
   <v>       0.25000000       0.06250000       0.12500000 </v>
   <v>       0.31250000       0.06250000       0.12500000 </v>
   <v>       0.37500000       0.06250000       0.12500000 </v>
   <v>       0.43750000       0.06250000       0.12500000 </v>
   <v>       0.50000000       0.06250000       0.12500000 </v>
   <v>      -0.43750000       0.06250000       0.12500000 </v>
   <v>      -0.37500000       0.06250000       0.12500000 </v>
   <v>      -0.31250000       0.06250000       0.12500000 </v>
   <v>      -0.25000000       0.06250000       0.12500000 </v>
   <v>      -0.18750000       0.06250000       0.12500000 </v>
   <v>      -0.12500000       0.06250000       0.12500000 </v>
   <v>       0.00000000       0.12500000       0.12500000 </v>
   <v>       0.06250000       0.12500000       0.12500000 </v>
   <v>       0.12500000       0.12500000       0.12500000 </v>
   <v>       0.18750000       0.12500000       0.12500000 </v>
   <v>       0.25000000       0.12500000       0.12500000 </v>
   <v>       0.31250000       0.12500000       0.12500000 </v>
   <v>       0.37500000       0.12500000       0.12500000 </v>
   <v>       0.43750000       0.12500000       0.12500000 </v>
   <v>       0.50000000       0.12500000       0.12500000 </v>
   <v>      -0.43750000       0.12500000       0.12500000 </v>
   <v>      -0.37500000       0.12500000       0.12500000 </v>
   <v>      -0.31250000       0.12500000       0.12500000 </v>
   <v>      -0.25000000       0.12500000       0.12500000 </v>
   <v>      -0.18750000       0.12500000       0.12500000 </v>
   <v>       0.00000000       0.18750000       0.12500000 </v>
   <v>       0.06250000       0.18750000       0.12500000 </v>
   <v>       0.12500000       0.18750000       0.12500000 </v>
   <v>       0.18750000       0.18750000       0.12500000 </v>
   <v>       0.25000000       0.18750000       0.12500000 </v>
   <v>       0.31250000       0.18750000       0.12500000 </v>
   <v>       0.37500000       0.18750000       0.12500000 </v>
   <v>       0.43750000       0.18750000       0.12500000 </v>
   <v>       0.50000000       0.18750000       0.12500000 </v>
   <v>      -0.43750000       0.18750000       0.12500000 </v>
   <v>      -0.37500000       0.18750000       0.12500000 </v>
   <v>      -0.31250000       0.18750000       0.12500000 </v>
   <v>      -0.25000000       0.18750000       0.12500000 </v>
   <v>       0.00000000       0.25000000       0.12500000 </v>
   <v>       0.06250000       0.25000000       0.12500000 </v>
   <v>       0.12500000       0.25000000       0.12500000 </v>
   <v>       0.18750000       0.25000000       0.12500000 </v>
   <v>       0.25000000       0.25000000       0.12500000 </v>
   <v>       0.31250000       0.25000000       0.12500000 </v>
   <v>       0.37500000       0.25000000       0.12500000 </v>
   <v>       0.43750000       0.25000000       0.12500000 </v>
   <v>       0.50000000       0.25000000       0.12500000 </v>
   <v>      -0.43750000       0.25000000       0.12500000 </v>
   <v>      -0.37500000       0.25000000       0.12500000 </v>
   <v>      -0.31250000       0.25000000       0.12500000 </v>
   <v>       0.00000000       0.31250000       0.12500000 </v>
   <v>       0.06250000       0.31250000       0.12500000 </v>
   <v>       0.12500000       0.31250000       0.12500000 </v>
   <v>       0.18750000       0.31250000       0.12500000 </v>
   <v>       0.25000000       0.31250000       0.12500000 </v>
   <v>       0.31250000       0.31250000       0.12500000 </v>
   <v>       0.37500000       0.31250000       0.12500000 </v>
   <v>       0.43750000       0.31250000       0.12500000 </v>
   <v>       0.50000000       0.31250000       0.12500000 </v>
   <v>      -0.43750000       0.31250000       0.12500000 </v>
   <v>      -0.37500000       0.31250000       0.12500000 </v>
   <v>       0.00000000       0.37500000       0.12500000 </v>
   <v>       0.06250000       0.37500000       0.12500000 </v>
   <v>       0.12500000       0.37500000       0.12500000 </v>
   <v>       0.18750000       0.37500000       0.12500000 </v>
   <v>       0.25000000       0.37500000       0.12500000 </v>
   <v>       0.31250000       0.37500000       0.12500000 </v>
   <v>       0.37500000       0.37500000       0.12500000 </v>
   <v>       0.43750000       0.37500000       0.12500000 </v>
   <v>       0.50000000       0.37500000       0.12500000 </v>
   <v>      -0.43750000       0.37500000       0.12500000 </v>
   <v>       0.00000000       0.43750000       0.12500000 </v>
   <v>       0.06250000       0.43750000       0.12500000 </v>
   <v>       0.12500000       0.43750000       0.12500000 </v>
   <v>       0.18750000       0.43750000       0.12500000 </v>
   <v>       0.25000000       0.43750000       0.12500000 </v>
   <v>       0.31250000       0.43750000       0.12500000 </v>
   <v>       0.37500000       0.43750000       0.12500000 </v>
   <v>       0.43750000       0.43750000       0.12500000 </v>
   <v>       0.50000000       0.43750000       0.12500000 </v>
   <v>       0.00000000       0.50000000       0.12500000 </v>
   <v>       0.06250000       0.50000000       0.12500000 </v>
   <v>       0.12500000       0.50000000       0.12500000 </v>
   <v>       0.18750000       0.50000000       0.12500000 </v>
   <v>       0.25000000       0.50000000       0.12500000 </v>
   <v>       0.31250000       0.50000000       0.12500000 </v>
   <v>       0.37500000       0.50000000       0.12500000 </v>
   <v>       0.43750000       0.50000000       0.12500000 </v>
   <v>       0.00000000      -0.43750000       0.12500000 </v>
   <v>       0.06250000      -0.43750000       0.12500000 </v>
   <v>       0.12500000      -0.43750000       0.12500000 </v>
   <v>       0.18750000      -0.43750000       0.12500000 </v>
   <v>       0.25000000      -0.43750000       0.12500000 </v>
   <v>       0.31250000      -0.43750000       0.12500000 </v>
   <v>       0.37500000      -0.43750000       0.12500000 </v>
   <v>       0.00000000      -0.37500000       0.12500000 </v>
   <v>       0.06250000      -0.37500000       0.12500000 </v>
   <v>       0.12500000      -0.37500000       0.12500000 </v>
   <v>       0.18750000      -0.37500000       0.12500000 </v>
   <v>       0.25000000      -0.37500000       0.12500000 </v>
   <v>       0.31250000      -0.37500000       0.12500000 </v>
   <v>       0.00000000      -0.31250000       0.12500000 </v>
   <v>       0.06250000      -0.31250000       0.12500000 </v>
   <v>       0.12500000      -0.31250000       0.12500000 </v>
   <v>       0.18750000      -0.31250000       0.12500000 </v>
   <v>       0.25000000      -0.31250000       0.12500000 </v>
   <v>       0.00000000      -0.25000000       0.12500000 </v>
   <v>       0.06250000      -0.25000000       0.12500000 </v>
   <v>       0.12500000      -0.25000000       0.12500000 </v>
   <v>       0.18750000      -0.25000000       0.12500000 </v>
   <v>       0.00000000      -0.18750000       0.12500000 </v>
   <v>       0.06250000      -0.18750000       0.12500000 </v>
   <v>       0.12500000      -0.18750000       0.12500000 </v>
   <v>       0.00000000      -0.12500000       0.12500000 </v>
   <v>       0.06250000      -0.12500000       0.12500000 </v>
   <v>       0.00000000      -0.06250000       0.12500000 </v>
   <v>       0.00000000      -0.00000000       0.18750000 </v>
   <v>       0.06250000      -0.00000000       0.18750000 </v>
   <v>       0.12500000      -0.00000000       0.18750000 </v>
   <v>       0.18750000      -0.00000000       0.18750000 </v>
   <v>       0.25000000      -0.00000000       0.18750000 </v>
   <v>       0.31250000      -0.00000000       0.18750000 </v>
   <v>       0.37500000      -0.00000000       0.18750000 </v>
   <v>       0.43750000      -0.00000000       0.18750000 </v>
   <v>       0.50000000      -0.00000000       0.18750000 </v>
   <v>      -0.43750000       0.00000000       0.18750000 </v>
   <v>      -0.37500000       0.00000000       0.18750000 </v>
   <v>      -0.31250000       0.00000000       0.18750000 </v>
   <v>      -0.25000000       0.00000000       0.18750000 </v>
   <v>      -0.18750000       0.00000000       0.18750000 </v>
   <v>      -0.12500000       0.00000000       0.18750000 </v>
   <v>      -0.06250000       0.00000000       0.18750000 </v>
   <v>       0.00000000       0.06250000       0.18750000 </v>
   <v>       0.06250000       0.06250000       0.18750000 </v>
   <v>       0.12500000       0.06250000       0.18750000 </v>
   <v>       0.18750000       0.06250000       0.18750000 </v>
   <v>       0.25000000       0.06250000       0.18750000 </v>
   <v>       0.31250000       0.06250000       0.18750000 </v>
   <v>       0.37500000       0.06250000       0.18750000 </v>
   <v>       0.43750000       0.06250000       0.18750000 </v>
   <v>       0.50000000       0.06250000       0.18750000 </v>
   <v>      -0.43750000       0.06250000       0.18750000 </v>
   <v>      -0.37500000       0.06250000       0.18750000 </v>
   <v>      -0.31250000       0.06250000       0.18750000 </v>
   <v>      -0.25000000       0.06250000       0.18750000 </v>
   <v>      -0.18750000       0.06250000       0.18750000 </v>
   <v>      -0.12500000       0.06250000       0.18750000 </v>
   <v>       0.00000000       0.12500000       0.18750000 </v>
   <v>       0.06250000       0.12500000       0.18750000 </v>
   <v>       0.12500000       0.12500000       0.18750000 </v>
   <v>       0.18750000       0.12500000       0.18750000 </v>
   <v>       0.25000000       0.12500000       0.18750000 </v>
   <v>       0.31250000       0.12500000       0.18750000 </v>
   <v>       0.37500000       0.12500000       0.18750000 </v>
   <v>       0.43750000       0.12500000       0.18750000 </v>
   <v>       0.50000000       0.12500000       0.18750000 </v>
   <v>      -0.43750000       0.12500000       0.18750000 </v>
   <v>      -0.37500000       0.12500000       0.18750000 </v>
   <v>      -0.31250000       0.12500000       0.18750000 </v>
   <v>      -0.25000000       0.12500000       0.18750000 </v>
   <v>      -0.18750000       0.12500000       0.18750000 </v>
   <v>       0.00000000       0.18750000       0.18750000 </v>
   <v>       0.06250000       0.18750000       0.18750000 </v>
   <v>       0.12500000       0.18750000       0.18750000 </v>
   <v>       0.18750000       0.18750000       0.18750000 </v>
   <v>       0.25000000       0.18750000       0.18750000 </v>
   <v>       0.31250000       0.18750000       0.18750000 </v>
   <v>       0.37500000       0.18750000       0.18750000 </v>
   <v>       0.43750000       0.18750000       0.18750000 </v>
   <v>       0.50000000       0.18750000       0.18750000 </v>
   <v>      -0.43750000       0.18750000       0.18750000 </v>
   <v>      -0.37500000       0.18750000       0.18750000 </v>
   <v>      -0.31250000       0.18750000       0.18750000 </v>
   <v>      -0.25000000       0.18750000       0.18750000 </v>
   <v>       0.00000000       0.25000000       0.18750000 </v>
   <v>       0.06250000       0.25000000       0.18750000 </v>
   <v>       0.12500000       0.25000000       0.18750000 </v>
   <v>       0.18750000       0.25000000       0.18750000 </v>
   <v>       0.25000000       0.25000000       0.18750000 </v>
   <v>       0.31250000       0.25000000       0.18750000 </v>
   <v>       0.37500000       0.25000000       0.18750000 </v>
   <v>       0.43750000       0.25000000       0.18750000 </v>
   <v>       0.50000000       0.25000000       0.18750000 </v>
   <v>      -0.43750000       0.25000000       0.18750000 </v>
   <v>      -0.37500000       0.25000000       0.18750000 </v>
   <v>      -0.31250000       0.25000000       0.18750000 </v>
   <v>       0.00000000       0.31250000       0.18750000 </v>
   <v>       0.06250000       0.31250000       0.18750000 </v>
   <v>       0.12500000       0.31250000       0.18750000 </v>
   <v>       0.18750000       0.31250000       0.18750000 </v>
   <v>       0.25000000       0.31250000       0.18750000 </v>
   <v>       0.31250000       0.31250000       0.18750000 </v>
   <v>       0.37500000       0.31250000       0.18750000 </v>
   <v>       0.43750000       0.31250000       0.18750000 </v>
   <v>       0.50000000       0.31250000       0.18750000 </v>
   <v>      -0.43750000       0.31250000       0.18750000 </v>
   <v>      -0.37500000       0.31250000       0.18750000 </v>
   <v>       0.00000000       0.37500000       0.18750000 </v>
   <v>       0.06250000       0.37500000       0.18750000 </v>
   <v>       0.12500000       0.37500000       0.18750000 </v>
   <v>       0.18750000       0.37500000       0.18750000 </v>
   <v>       0.25000000       0.37500000       0.18750000 </v>
   <v>       0.31250000       0.37500000       0.18750000 </v>
   <v>       0.37500000       0.37500000       0.18750000 </v>
   <v>       0.43750000       0.37500000       0.18750000 </v>
   <v>       0.50000000       0.37500000       0.18750000 </v>
   <v>      -0.43750000       0.37500000       0.18750000 </v>
   <v>       0.00000000       0.43750000       0.18750000 </v>
   <v>       0.06250000       0.43750000       0.18750000 </v>
   <v>       0.12500000       0.43750000       0.18750000 </v>
   <v>       0.18750000       0.43750000       0.18750000 </v>
   <v>       0.25000000       0.43750000       0.18750000 </v>
   <v>       0.31250000       0.43750000       0.18750000 </v>
   <v>       0.37500000       0.43750000       0.18750000 </v>
   <v>       0.43750000       0.43750000       0.18750000 </v>
   <v>       0.50000000       0.43750000       0.18750000 </v>
   <v>       0.00000000       0.50000000       0.18750000 </v>
   <v>       0.06250000       0.50000000       0.18750000 </v>
   <v>       0.12500000       0.50000000       0.18750000 </v>
   <v>       0.18750000       0.50000000       0.18750000 </v>
   <v>       0.25000000       0.50000000       0.18750000 </v>
   <v>       0.31250000       0.50000000       0.18750000 </v>
   <v>       0.37500000       0.50000000       0.18750000 </v>
   <v>       0.43750000       0.50000000       0.18750000 </v>
   <v>       0.00000000      -0.43750000       0.18750000 </v>
   <v>       0.06250000      -0.43750000       0.18750000 </v>
   <v>       0.12500000      -0.43750000       0.18750000 </v>
   <v>       0.18750000      -0.43750000       0.18750000 </v>
   <v>       0.25000000      -0.43750000       0.18750000 </v>
   <v>       0.31250000      -0.43750000       0.18750000 </v>
   <v>       0.37500000      -0.43750000       0.18750000 </v>
   <v>       0.00000000      -0.37500000       0.18750000 </v>
   <v>       0.06250000      -0.37500000       0.18750000 </v>
   <v>       0.12500000      -0.37500000       0.18750000 </v>
   <v>       0.18750000      -0.37500000       0.18750000 </v>
   <v>       0.25000000      -0.37500000       0.18750000 </v>
   <v>       0.31250000      -0.37500000       0.18750000 </v>
   <v>       0.00000000      -0.31250000       0.18750000 </v>
   <v>       0.06250000      -0.31250000       0.18750000 </v>
   <v>       0.12500000      -0.31250000       0.18750000 </v>
   <v>       0.18750000      -0.31250000       0.18750000 </v>
   <v>       0.25000000      -0.31250000       0.18750000 </v>
   <v>       0.00000000      -0.25000000       0.18750000 </v>
   <v>       0.06250000      -0.25000000       0.18750000 </v>
   <v>       0.12500000      -0.25000000       0.18750000 </v>
   <v>       0.18750000      -0.25000000       0.18750000 </v>
   <v>       0.00000000      -0.18750000       0.18750000 </v>
   <v>       0.06250000      -0.18750000       0.18750000 </v>
   <v>       0.12500000      -0.18750000       0.18750000 </v>
   <v>       0.00000000      -0.12500000       0.18750000 </v>
   <v>       0.06250000      -0.12500000       0.18750000 </v>
   <v>       0.00000000      -0.06250000       0.18750000 </v>
   <v>       0.00000000      -0.00000000       0.25000000 </v>
   <v>       0.06250000      -0.00000000       0.25000000 </v>
   <v>       0.12500000      -0.00000000       0.25000000 </v>
   <v>       0.18750000      -0.00000000       0.25000000 </v>
   <v>       0.25000000      -0.00000000       0.25000000 </v>
   <v>       0.31250000      -0.00000000       0.25000000 </v>
   <v>       0.37500000      -0.00000000       0.25000000 </v>
   <v>       0.43750000      -0.00000000       0.25000000 </v>
   <v>       0.50000000      -0.00000000       0.25000000 </v>
   <v>      -0.43750000       0.00000000       0.25000000 </v>
   <v>      -0.37500000       0.00000000       0.25000000 </v>
   <v>      -0.31250000       0.00000000       0.25000000 </v>
   <v>      -0.25000000       0.00000000       0.25000000 </v>
   <v>      -0.18750000       0.00000000       0.25000000 </v>
   <v>      -0.12500000       0.00000000       0.25000000 </v>
   <v>      -0.06250000       0.00000000       0.25000000 </v>
   <v>       0.00000000       0.06250000       0.25000000 </v>
   <v>       0.06250000       0.06250000       0.25000000 </v>
   <v>       0.12500000       0.06250000       0.25000000 </v>
   <v>       0.18750000       0.06250000       0.25000000 </v>
   <v>       0.25000000       0.06250000       0.25000000 </v>
   <v>       0.31250000       0.06250000       0.25000000 </v>
   <v>       0.37500000       0.06250000       0.25000000 </v>
   <v>       0.43750000       0.06250000       0.25000000 </v>
   <v>       0.50000000       0.06250000       0.25000000 </v>
   <v>      -0.43750000       0.06250000       0.25000000 </v>
   <v>      -0.37500000       0.06250000       0.25000000 </v>
   <v>      -0.31250000       0.06250000       0.25000000 </v>
   <v>      -0.25000000       0.06250000       0.25000000 </v>
   <v>      -0.18750000       0.06250000       0.25000000 </v>
   <v>      -0.12500000       0.06250000       0.25000000 </v>
   <v>       0.00000000       0.12500000       0.25000000 </v>
   <v>       0.06250000       0.12500000       0.25000000 </v>
   <v>       0.12500000       0.12500000       0.25000000 </v>
   <v>       0.18750000       0.12500000       0.25000000 </v>
   <v>       0.25000000       0.12500000       0.25000000 </v>
   <v>       0.31250000       0.12500000       0.25000000 </v>
   <v>       0.37500000       0.12500000       0.25000000 </v>
   <v>       0.43750000       0.12500000       0.25000000 </v>
   <v>       0.50000000       0.12500000       0.25000000 </v>
   <v>      -0.43750000       0.12500000       0.25000000 </v>
   <v>      -0.37500000       0.12500000       0.25000000 </v>
   <v>      -0.31250000       0.12500000       0.25000000 </v>
   <v>      -0.25000000       0.12500000       0.25000000 </v>
   <v>      -0.18750000       0.12500000       0.25000000 </v>
   <v>       0.00000000       0.18750000       0.25000000 </v>
   <v>       0.06250000       0.18750000       0.25000000 </v>
   <v>       0.12500000       0.18750000       0.25000000 </v>
   <v>       0.18750000       0.18750000       0.25000000 </v>
   <v>       0.25000000       0.18750000       0.25000000 </v>
   <v>       0.31250000       0.18750000       0.25000000 </v>
   <v>       0.37500000       0.18750000       0.25000000 </v>
   <v>       0.43750000       0.18750000       0.25000000 </v>
   <v>       0.50000000       0.18750000       0.25000000 </v>
   <v>      -0.43750000       0.18750000       0.25000000 </v>
   <v>      -0.37500000       0.18750000       0.25000000 </v>
   <v>      -0.31250000       0.18750000       0.25000000 </v>
   <v>      -0.25000000       0.18750000       0.25000000 </v>
   <v>       0.00000000       0.25000000       0.25000000 </v>
   <v>       0.06250000       0.25000000       0.25000000 </v>
   <v>       0.12500000       0.25000000       0.25000000 </v>
   <v>       0.18750000       0.25000000       0.25000000 </v>
   <v>       0.25000000       0.25000000       0.25000000 </v>
   <v>       0.31250000       0.25000000       0.25000000 </v>
   <v>       0.37500000       0.25000000       0.25000000 </v>
   <v>       0.43750000       0.25000000       0.25000000 </v>
   <v>       0.50000000       0.25000000       0.25000000 </v>
   <v>      -0.43750000       0.25000000       0.25000000 </v>
   <v>      -0.37500000       0.25000000       0.25000000 </v>
   <v>      -0.31250000       0.25000000       0.25000000 </v>
   <v>       0.00000000       0.31250000       0.25000000 </v>
   <v>       0.06250000       0.31250000       0.25000000 </v>
   <v>       0.12500000       0.31250000       0.25000000 </v>
   <v>       0.18750000       0.31250000       0.25000000 </v>
   <v>       0.25000000       0.31250000       0.25000000 </v>
   <v>       0.31250000       0.31250000       0.25000000 </v>
   <v>       0.37500000       0.31250000       0.25000000 </v>
   <v>       0.43750000       0.31250000       0.25000000 </v>
   <v>       0.50000000       0.31250000       0.25000000 </v>
   <v>      -0.43750000       0.31250000       0.25000000 </v>
   <v>      -0.37500000       0.31250000       0.25000000 </v>
   <v>       0.00000000       0.37500000       0.25000000 </v>
   <v>       0.06250000       0.37500000       0.25000000 </v>
   <v>       0.12500000       0.37500000       0.25000000 </v>
   <v>       0.18750000       0.37500000       0.25000000 </v>
   <v>       0.25000000       0.37500000       0.25000000 </v>
   <v>       0.31250000       0.37500000       0.25000000 </v>
   <v>       0.37500000       0.37500000       0.25000000 </v>
   <v>       0.43750000       0.37500000       0.25000000 </v>
   <v>       0.50000000       0.37500000       0.25000000 </v>
   <v>      -0.43750000       0.37500000       0.25000000 </v>
   <v>       0.00000000       0.43750000       0.25000000 </v>
   <v>       0.06250000       0.43750000       0.25000000 </v>
   <v>       0.12500000       0.43750000       0.25000000 </v>
   <v>       0.18750000       0.43750000       0.25000000 </v>
   <v>       0.25000000       0.43750000       0.25000000 </v>
   <v>       0.31250000       0.43750000       0.25000000 </v>
   <v>       0.37500000       0.43750000       0.25000000 </v>
   <v>       0.43750000       0.43750000       0.25000000 </v>
   <v>       0.50000000       0.43750000       0.25000000 </v>
   <v>       0.00000000       0.50000000       0.25000000 </v>
   <v>       0.06250000       0.50000000       0.25000000 </v>
   <v>       0.12500000       0.50000000       0.25000000 </v>
   <v>       0.18750000       0.50000000       0.25000000 </v>
   <v>       0.25000000       0.50000000       0.25000000 </v>
   <v>       0.31250000       0.50000000       0.25000000 </v>
   <v>       0.37500000       0.50000000       0.25000000 </v>
   <v>       0.43750000       0.50000000       0.25000000 </v>
   <v>       0.00000000      -0.43750000       0.25000000 </v>
   <v>       0.06250000      -0.43750000       0.25000000 </v>
   <v>       0.12500000      -0.43750000       0.25000000 </v>
   <v>       0.18750000      -0.43750000       0.25000000 </v>
   <v>       0.25000000      -0.43750000       0.25000000 </v>
   <v>       0.31250000      -0.43750000       0.25000000 </v>
   <v>       0.37500000      -0.43750000       0.25000000 </v>
   <v>       0.00000000      -0.37500000       0.25000000 </v>
   <v>       0.06250000      -0.37500000       0.25000000 </v>
   <v>       0.12500000      -0.37500000       0.25000000 </v>
   <v>       0.18750000      -0.37500000       0.25000000 </v>
   <v>       0.25000000      -0.37500000       0.25000000 </v>
   <v>       0.31250000      -0.37500000       0.25000000 </v>
   <v>       0.00000000      -0.31250000       0.25000000 </v>
   <v>       0.06250000      -0.31250000       0.25000000 </v>
   <v>       0.12500000      -0.31250000       0.25000000 </v>
   <v>       0.18750000      -0.31250000       0.25000000 </v>
   <v>       0.25000000      -0.31250000       0.25000000 </v>
   <v>       0.00000000      -0.25000000       0.25000000 </v>
   <v>       0.06250000      -0.25000000       0.25000000 </v>
   <v>       0.12500000      -0.25000000       0.25000000 </v>
   <v>       0.18750000      -0.25000000       0.25000000 </v>
   <v>       0.00000000      -0.18750000       0.25000000 </v>
   <v>       0.06250000      -0.18750000       0.25000000 </v>
   <v>       0.12500000      -0.18750000       0.25000000 </v>
   <v>       0.00000000      -0.12500000       0.25000000 </v>
   <v>       0.06250000      -0.12500000       0.25000000 </v>
   <v>       0.00000000      -0.06250000       0.25000000 </v>
   <v>       0.00000000      -0.00000000       0.31250000 </v>
   <v>       0.06250000      -0.00000000       0.31250000 </v>
   <v>       0.12500000      -0.00000000       0.31250000 </v>
   <v>       0.18750000      -0.00000000       0.31250000 </v>
   <v>       0.25000000      -0.00000000       0.31250000 </v>
   <v>       0.31250000      -0.00000000       0.31250000 </v>
   <v>       0.37500000      -0.00000000       0.31250000 </v>
   <v>       0.43750000      -0.00000000       0.31250000 </v>
   <v>       0.50000000      -0.00000000       0.31250000 </v>
   <v>      -0.43750000       0.00000000       0.31250000 </v>
   <v>      -0.37500000       0.00000000       0.31250000 </v>
   <v>      -0.31250000       0.00000000       0.31250000 </v>
   <v>      -0.25000000       0.00000000       0.31250000 </v>
   <v>      -0.18750000       0.00000000       0.31250000 </v>
   <v>      -0.12500000       0.00000000       0.31250000 </v>
   <v>      -0.06250000       0.00000000       0.31250000 </v>
   <v>       0.00000000       0.06250000       0.31250000 </v>
   <v>       0.06250000       0.06250000       0.31250000 </v>
   <v>       0.12500000       0.06250000       0.31250000 </v>
   <v>       0.18750000       0.06250000       0.31250000 </v>
   <v>       0.25000000       0.06250000       0.31250000 </v>
   <v>       0.31250000       0.06250000       0.31250000 </v>
   <v>       0.37500000       0.06250000       0.31250000 </v>
   <v>       0.43750000       0.06250000       0.31250000 </v>
   <v>       0.50000000       0.06250000       0.31250000 </v>
   <v>      -0.43750000       0.06250000       0.31250000 </v>
   <v>      -0.37500000       0.06250000       0.31250000 </v>
   <v>      -0.31250000       0.06250000       0.31250000 </v>
   <v>      -0.25000000       0.06250000       0.31250000 </v>
   <v>      -0.18750000       0.06250000       0.31250000 </v>
   <v>      -0.12500000       0.06250000       0.31250000 </v>
   <v>       0.00000000       0.12500000       0.31250000 </v>
   <v>       0.06250000       0.12500000       0.31250000 </v>
   <v>       0.12500000       0.12500000       0.31250000 </v>
   <v>       0.18750000       0.12500000       0.31250000 </v>
   <v>       0.25000000       0.12500000       0.31250000 </v>
   <v>       0.31250000       0.12500000       0.31250000 </v>
   <v>       0.37500000       0.12500000       0.31250000 </v>
   <v>       0.43750000       0.12500000       0.31250000 </v>
   <v>       0.50000000       0.12500000       0.31250000 </v>
   <v>      -0.43750000       0.12500000       0.31250000 </v>
   <v>      -0.37500000       0.12500000       0.31250000 </v>
   <v>      -0.31250000       0.12500000       0.31250000 </v>
   <v>      -0.25000000       0.12500000       0.31250000 </v>
   <v>      -0.18750000       0.12500000       0.31250000 </v>
   <v>       0.00000000       0.18750000       0.31250000 </v>
   <v>       0.06250000       0.18750000       0.31250000 </v>
   <v>       0.12500000       0.18750000       0.31250000 </v>
   <v>       0.18750000       0.18750000       0.31250000 </v>
   <v>       0.25000000       0.18750000       0.31250000 </v>
   <v>       0.31250000       0.18750000       0.31250000 </v>
   <v>       0.37500000       0.18750000       0.31250000 </v>
   <v>       0.43750000       0.18750000       0.31250000 </v>
   <v>       0.50000000       0.18750000       0.31250000 </v>
   <v>      -0.43750000       0.18750000       0.31250000 </v>
   <v>      -0.37500000       0.18750000       0.31250000 </v>
   <v>      -0.31250000       0.18750000       0.31250000 </v>
   <v>      -0.25000000       0.18750000       0.31250000 </v>
   <v>       0.00000000       0.25000000       0.31250000 </v>
   <v>       0.06250000       0.25000000       0.31250000 </v>
   <v>       0.12500000       0.25000000       0.31250000 </v>
   <v>       0.18750000       0.25000000       0.31250000 </v>
   <v>       0.25000000       0.25000000       0.31250000 </v>
   <v>       0.31250000       0.25000000       0.31250000 </v>
   <v>       0.37500000       0.25000000       0.31250000 </v>
   <v>       0.43750000       0.25000000       0.31250000 </v>
   <v>       0.50000000       0.25000000       0.31250000 </v>
   <v>      -0.43750000       0.25000000       0.31250000 </v>
   <v>      -0.37500000       0.25000000       0.31250000 </v>
   <v>      -0.31250000       0.25000000       0.31250000 </v>
   <v>       0.00000000       0.31250000       0.31250000 </v>
   <v>       0.06250000       0.31250000       0.31250000 </v>
   <v>       0.12500000       0.31250000       0.31250000 </v>
   <v>       0.18750000       0.31250000       0.31250000 </v>
   <v>       0.25000000       0.31250000       0.31250000 </v>
   <v>       0.31250000       0.31250000       0.31250000 </v>
   <v>       0.37500000       0.31250000       0.31250000 </v>
   <v>       0.43750000       0.31250000       0.31250000 </v>
   <v>       0.50000000       0.31250000       0.31250000 </v>
   <v>      -0.43750000       0.31250000       0.31250000 </v>
   <v>      -0.37500000       0.31250000       0.31250000 </v>
   <v>       0.00000000       0.37500000       0.31250000 </v>
   <v>       0.06250000       0.37500000       0.31250000 </v>
   <v>       0.12500000       0.37500000       0.31250000 </v>
   <v>       0.18750000       0.37500000       0.31250000 </v>
   <v>       0.25000000       0.37500000       0.31250000 </v>
   <v>       0.31250000       0.37500000       0.31250000 </v>
   <v>       0.37500000       0.37500000       0.31250000 </v>
   <v>       0.43750000       0.37500000       0.31250000 </v>
   <v>       0.50000000       0.37500000       0.31250000 </v>
   <v>      -0.43750000       0.37500000       0.31250000 </v>
   <v>       0.00000000       0.43750000       0.31250000 </v>
   <v>       0.06250000       0.43750000       0.31250000 </v>
   <v>       0.12500000       0.43750000       0.31250000 </v>
   <v>       0.18750000       0.43750000       0.31250000 </v>
   <v>       0.25000000       0.43750000       0.31250000 </v>
   <v>       0.31250000       0.43750000       0.31250000 </v>
   <v>       0.37500000       0.43750000       0.31250000 </v>
   <v>       0.43750000       0.43750000       0.31250000 </v>
   <v>       0.50000000       0.43750000       0.31250000 </v>
   <v>       0.00000000       0.50000000       0.31250000 </v>
   <v>       0.06250000       0.50000000       0.31250000 </v>
   <v>       0.12500000       0.50000000       0.31250000 </v>
   <v>       0.18750000       0.50000000       0.31250000 </v>
   <v>       0.25000000       0.50000000       0.31250000 </v>
   <v>       0.31250000       0.50000000       0.31250000 </v>
   <v>       0.37500000       0.50000000       0.31250000 </v>
   <v>       0.43750000       0.50000000       0.31250000 </v>
   <v>       0.00000000      -0.43750000       0.31250000 </v>
   <v>       0.06250000      -0.43750000       0.31250000 </v>
   <v>       0.12500000      -0.43750000       0.31250000 </v>
   <v>       0.18750000      -0.43750000       0.31250000 </v>
   <v>       0.25000000      -0.43750000       0.31250000 </v>
   <v>       0.31250000      -0.43750000       0.31250000 </v>
   <v>       0.37500000      -0.43750000       0.31250000 </v>
   <v>       0.00000000      -0.37500000       0.31250000 </v>
   <v>       0.06250000      -0.37500000       0.31250000 </v>
   <v>       0.12500000      -0.37500000       0.31250000 </v>
   <v>       0.18750000      -0.37500000       0.31250000 </v>
   <v>       0.25000000      -0.37500000       0.31250000 </v>
   <v>       0.31250000      -0.37500000       0.31250000 </v>
   <v>       0.00000000      -0.31250000       0.31250000 </v>
   <v>       0.06250000      -0.31250000       0.31250000 </v>
   <v>       0.12500000      -0.31250000       0.31250000 </v>
   <v>       0.18750000      -0.31250000       0.31250000 </v>
   <v>       0.25000000      -0.31250000       0.31250000 </v>
   <v>       0.00000000      -0.25000000       0.31250000 </v>
   <v>       0.06250000      -0.25000000       0.31250000 </v>
   <v>       0.12500000      -0.25000000       0.31250000 </v>
   <v>       0.18750000      -0.25000000       0.31250000 </v>
   <v>       0.00000000      -0.18750000       0.31250000 </v>
   <v>       0.06250000      -0.18750000       0.31250000 </v>
   <v>       0.12500000      -0.18750000       0.31250000 </v>
   <v>       0.00000000      -0.12500000       0.31250000 </v>
   <v>       0.06250000      -0.12500000       0.31250000 </v>
   <v>       0.00000000      -0.06250000       0.31250000 </v>
   <v>       0.00000000      -0.00000000       0.37500000 </v>
   <v>       0.06250000      -0.00000000       0.37500000 </v>
   <v>       0.12500000      -0.00000000       0.37500000 </v>
   <v>       0.18750000      -0.00000000       0.37500000 </v>
   <v>       0.25000000      -0.00000000       0.37500000 </v>
   <v>       0.31250000      -0.00000000       0.37500000 </v>
   <v>       0.37500000      -0.00000000       0.37500000 </v>
   <v>       0.43750000      -0.00000000       0.37500000 </v>
   <v>       0.50000000      -0.00000000       0.37500000 </v>
   <v>      -0.43750000       0.00000000       0.37500000 </v>
   <v>      -0.37500000       0.00000000       0.37500000 </v>
   <v>      -0.31250000       0.00000000       0.37500000 </v>
   <v>      -0.25000000       0.00000000       0.37500000 </v>
   <v>      -0.18750000       0.00000000       0.37500000 </v>
   <v>      -0.12500000       0.00000000       0.37500000 </v>
   <v>      -0.06250000       0.00000000       0.37500000 </v>
   <v>       0.00000000       0.06250000       0.37500000 </v>
   <v>       0.06250000       0.06250000       0.37500000 </v>
   <v>       0.12500000       0.06250000       0.37500000 </v>
   <v>       0.18750000       0.06250000       0.37500000 </v>
   <v>       0.25000000       0.06250000       0.37500000 </v>
   <v>       0.31250000       0.06250000       0.37500000 </v>
   <v>       0.37500000       0.06250000       0.37500000 </v>
   <v>       0.43750000       0.06250000       0.37500000 </v>
   <v>       0.50000000       0.06250000       0.37500000 </v>
   <v>      -0.43750000       0.06250000       0.37500000 </v>
   <v>      -0.37500000       0.06250000       0.37500000 </v>
   <v>      -0.31250000       0.06250000       0.37500000 </v>
   <v>      -0.25000000       0.06250000       0.37500000 </v>
   <v>      -0.18750000       0.06250000       0.37500000 </v>
   <v>      -0.12500000       0.06250000       0.37500000 </v>
   <v>       0.00000000       0.12500000       0.37500000 </v>
   <v>       0.06250000       0.12500000       0.37500000 </v>
   <v>       0.12500000       0.12500000       0.37500000 </v>
   <v>       0.18750000       0.12500000       0.37500000 </v>
   <v>       0.25000000       0.12500000       0.37500000 </v>
   <v>       0.31250000       0.12500000       0.37500000 </v>
   <v>       0.37500000       0.12500000       0.37500000 </v>
   <v>       0.43750000       0.12500000       0.37500000 </v>
   <v>       0.50000000       0.12500000       0.37500000 </v>
   <v>      -0.43750000       0.12500000       0.37500000 </v>
   <v>      -0.37500000       0.12500000       0.37500000 </v>
   <v>      -0.31250000       0.12500000       0.37500000 </v>
   <v>      -0.25000000       0.12500000       0.37500000 </v>
   <v>      -0.18750000       0.12500000       0.37500000 </v>
   <v>       0.00000000       0.18750000       0.37500000 </v>
   <v>       0.06250000       0.18750000       0.37500000 </v>
   <v>       0.12500000       0.18750000       0.37500000 </v>
   <v>       0.18750000       0.18750000       0.37500000 </v>
   <v>       0.25000000       0.18750000       0.37500000 </v>
   <v>       0.31250000       0.18750000       0.37500000 </v>
   <v>       0.37500000       0.18750000       0.37500000 </v>
   <v>       0.43750000       0.18750000       0.37500000 </v>
   <v>       0.50000000       0.18750000       0.37500000 </v>
   <v>      -0.43750000       0.18750000       0.37500000 </v>
   <v>      -0.37500000       0.18750000       0.37500000 </v>
   <v>      -0.31250000       0.18750000       0.37500000 </v>
   <v>      -0.25000000       0.18750000       0.37500000 </v>
   <v>       0.00000000       0.25000000       0.37500000 </v>
   <v>       0.06250000       0.25000000       0.37500000 </v>
   <v>       0.12500000       0.25000000       0.37500000 </v>
   <v>       0.18750000       0.25000000       0.37500000 </v>
   <v>       0.25000000       0.25000000       0.37500000 </v>
   <v>       0.31250000       0.25000000       0.37500000 </v>
   <v>       0.37500000       0.25000000       0.37500000 </v>
   <v>       0.43750000       0.25000000       0.37500000 </v>
   <v>       0.50000000       0.25000000       0.37500000 </v>
   <v>      -0.43750000       0.25000000       0.37500000 </v>
   <v>      -0.37500000       0.25000000       0.37500000 </v>
   <v>      -0.31250000       0.25000000       0.37500000 </v>
   <v>       0.00000000       0.31250000       0.37500000 </v>
   <v>       0.06250000       0.31250000       0.37500000 </v>
   <v>       0.12500000       0.31250000       0.37500000 </v>
   <v>       0.18750000       0.31250000       0.37500000 </v>
   <v>       0.25000000       0.31250000       0.37500000 </v>
   <v>       0.31250000       0.31250000       0.37500000 </v>
   <v>       0.37500000       0.31250000       0.37500000 </v>
   <v>       0.43750000       0.31250000       0.37500000 </v>
   <v>       0.50000000       0.31250000       0.37500000 </v>
   <v>      -0.43750000       0.31250000       0.37500000 </v>
   <v>      -0.37500000       0.31250000       0.37500000 </v>
   <v>       0.00000000       0.37500000       0.37500000 </v>
   <v>       0.06250000       0.37500000       0.37500000 </v>
   <v>       0.12500000       0.37500000       0.37500000 </v>
   <v>       0.18750000       0.37500000       0.37500000 </v>
   <v>       0.25000000       0.37500000       0.37500000 </v>
   <v>       0.31250000       0.37500000       0.37500000 </v>
   <v>       0.37500000       0.37500000       0.37500000 </v>
   <v>       0.43750000       0.37500000       0.37500000 </v>
   <v>       0.50000000       0.37500000       0.37500000 </v>
   <v>      -0.43750000       0.37500000       0.37500000 </v>
   <v>       0.00000000       0.43750000       0.37500000 </v>
   <v>       0.06250000       0.43750000       0.37500000 </v>
   <v>       0.12500000       0.43750000       0.37500000 </v>
   <v>       0.18750000       0.43750000       0.37500000 </v>
   <v>       0.25000000       0.43750000       0.37500000 </v>
   <v>       0.31250000       0.43750000       0.37500000 </v>
   <v>       0.37500000       0.43750000       0.37500000 </v>
   <v>       0.43750000       0.43750000       0.37500000 </v>
   <v>       0.50000000       0.43750000       0.37500000 </v>
   <v>       0.00000000       0.50000000       0.37500000 </v>
   <v>       0.06250000       0.50000000       0.37500000 </v>
   <v>       0.12500000       0.50000000       0.37500000 </v>
   <v>       0.18750000       0.50000000       0.37500000 </v>
   <v>       0.25000000       0.50000000       0.37500000 </v>
   <v>       0.31250000       0.50000000       0.37500000 </v>
   <v>       0.37500000       0.50000000       0.37500000 </v>
   <v>       0.43750000       0.50000000       0.37500000 </v>
   <v>       0.00000000      -0.43750000       0.37500000 </v>
   <v>       0.06250000      -0.43750000       0.37500000 </v>
   <v>       0.12500000      -0.43750000       0.37500000 </v>
   <v>       0.18750000      -0.43750000       0.37500000 </v>
   <v>       0.25000000      -0.43750000       0.37500000 </v>
   <v>       0.31250000      -0.43750000       0.37500000 </v>
   <v>       0.37500000      -0.43750000       0.37500000 </v>
   <v>       0.00000000      -0.37500000       0.37500000 </v>
   <v>       0.06250000      -0.37500000       0.37500000 </v>
   <v>       0.12500000      -0.37500000       0.37500000 </v>
   <v>       0.18750000      -0.37500000       0.37500000 </v>
   <v>       0.25000000      -0.37500000       0.37500000 </v>
   <v>       0.31250000      -0.37500000       0.37500000 </v>
   <v>       0.00000000      -0.31250000       0.37500000 </v>
   <v>       0.06250000      -0.31250000       0.37500000 </v>
   <v>       0.12500000      -0.31250000       0.37500000 </v>
   <v>       0.18750000      -0.31250000       0.37500000 </v>
   <v>       0.25000000      -0.31250000       0.37500000 </v>
   <v>       0.00000000      -0.25000000       0.37500000 </v>
   <v>       0.06250000      -0.25000000       0.37500000 </v>
   <v>       0.12500000      -0.25000000       0.37500000 </v>
   <v>       0.18750000      -0.25000000       0.37500000 </v>
   <v>       0.00000000      -0.18750000       0.37500000 </v>
   <v>       0.06250000      -0.18750000       0.37500000 </v>
   <v>       0.12500000      -0.18750000       0.37500000 </v>
   <v>       0.00000000      -0.12500000       0.37500000 </v>
   <v>       0.06250000      -0.12500000       0.37500000 </v>
   <v>       0.00000000      -0.06250000       0.37500000 </v>
   <v>       0.00000000      -0.00000000       0.43750000 </v>
   <v>       0.06250000      -0.00000000       0.43750000 </v>
   <v>       0.12500000      -0.00000000       0.43750000 </v>
   <v>       0.18750000      -0.00000000       0.43750000 </v>
   <v>       0.25000000      -0.00000000       0.43750000 </v>
   <v>       0.31250000      -0.00000000       0.43750000 </v>
   <v>       0.37500000      -0.00000000       0.43750000 </v>
   <v>       0.43750000      -0.00000000       0.43750000 </v>
   <v>       0.50000000      -0.00000000       0.43750000 </v>
   <v>      -0.43750000       0.00000000       0.43750000 </v>
   <v>      -0.37500000       0.00000000       0.43750000 </v>
   <v>      -0.31250000       0.00000000       0.43750000 </v>
   <v>      -0.25000000       0.00000000       0.43750000 </v>
   <v>      -0.18750000       0.00000000       0.43750000 </v>
   <v>      -0.12500000       0.00000000       0.43750000 </v>
   <v>      -0.06250000       0.00000000       0.43750000 </v>
   <v>       0.00000000       0.06250000       0.43750000 </v>
   <v>       0.06250000       0.06250000       0.43750000 </v>
   <v>       0.12500000       0.06250000       0.43750000 </v>
   <v>       0.18750000       0.06250000       0.43750000 </v>
   <v>       0.25000000       0.06250000       0.43750000 </v>
   <v>       0.31250000       0.06250000       0.43750000 </v>
   <v>       0.37500000       0.06250000       0.43750000 </v>
   <v>       0.43750000       0.06250000       0.43750000 </v>
   <v>       0.50000000       0.06250000       0.43750000 </v>
   <v>      -0.43750000       0.06250000       0.43750000 </v>
   <v>      -0.37500000       0.06250000       0.43750000 </v>
   <v>      -0.31250000       0.06250000       0.43750000 </v>
   <v>      -0.25000000       0.06250000       0.43750000 </v>
   <v>      -0.18750000       0.06250000       0.43750000 </v>
   <v>      -0.12500000       0.06250000       0.43750000 </v>
   <v>       0.00000000       0.12500000       0.43750000 </v>
   <v>       0.06250000       0.12500000       0.43750000 </v>
   <v>       0.12500000       0.12500000       0.43750000 </v>
   <v>       0.18750000       0.12500000       0.43750000 </v>
   <v>       0.25000000       0.12500000       0.43750000 </v>
   <v>       0.31250000       0.12500000       0.43750000 </v>
   <v>       0.37500000       0.12500000       0.43750000 </v>
   <v>       0.43750000       0.12500000       0.43750000 </v>
   <v>       0.50000000       0.12500000       0.43750000 </v>
   <v>      -0.43750000       0.12500000       0.43750000 </v>
   <v>      -0.37500000       0.12500000       0.43750000 </v>
   <v>      -0.31250000       0.12500000       0.43750000 </v>
   <v>      -0.25000000       0.12500000       0.43750000 </v>
   <v>      -0.18750000       0.12500000       0.43750000 </v>
   <v>       0.00000000       0.18750000       0.43750000 </v>
   <v>       0.06250000       0.18750000       0.43750000 </v>
   <v>       0.12500000       0.18750000       0.43750000 </v>
   <v>       0.18750000       0.18750000       0.43750000 </v>
   <v>       0.25000000       0.18750000       0.43750000 </v>
   <v>       0.31250000       0.18750000       0.43750000 </v>
   <v>       0.37500000       0.18750000       0.43750000 </v>
   <v>       0.43750000       0.18750000       0.43750000 </v>
   <v>       0.50000000       0.18750000       0.43750000 </v>
   <v>      -0.43750000       0.18750000       0.43750000 </v>
   <v>      -0.37500000       0.18750000       0.43750000 </v>
   <v>      -0.31250000       0.18750000       0.43750000 </v>
   <v>      -0.25000000       0.18750000       0.43750000 </v>
   <v>       0.00000000       0.25000000       0.43750000 </v>
   <v>       0.06250000       0.25000000       0.43750000 </v>
   <v>       0.12500000       0.25000000       0.43750000 </v>
   <v>       0.18750000       0.25000000       0.43750000 </v>
   <v>       0.25000000       0.25000000       0.43750000 </v>
   <v>       0.31250000       0.25000000       0.43750000 </v>
   <v>       0.37500000       0.25000000       0.43750000 </v>
   <v>       0.43750000       0.25000000       0.43750000 </v>
   <v>       0.50000000       0.25000000       0.43750000 </v>
   <v>      -0.43750000       0.25000000       0.43750000 </v>
   <v>      -0.37500000       0.25000000       0.43750000 </v>
   <v>      -0.31250000       0.25000000       0.43750000 </v>
   <v>       0.00000000       0.31250000       0.43750000 </v>
   <v>       0.06250000       0.31250000       0.43750000 </v>
   <v>       0.12500000       0.31250000       0.43750000 </v>
   <v>       0.18750000       0.31250000       0.43750000 </v>
   <v>       0.25000000       0.31250000       0.43750000 </v>
   <v>       0.31250000       0.31250000       0.43750000 </v>
   <v>       0.37500000       0.31250000       0.43750000 </v>
   <v>       0.43750000       0.31250000       0.43750000 </v>
   <v>       0.50000000       0.31250000       0.43750000 </v>
   <v>      -0.43750000       0.31250000       0.43750000 </v>
   <v>      -0.37500000       0.31250000       0.43750000 </v>
   <v>       0.00000000       0.37500000       0.43750000 </v>
   <v>       0.06250000       0.37500000       0.43750000 </v>
   <v>       0.12500000       0.37500000       0.43750000 </v>
   <v>       0.18750000       0.37500000       0.43750000 </v>
   <v>       0.25000000       0.37500000       0.43750000 </v>
   <v>       0.31250000       0.37500000       0.43750000 </v>
   <v>       0.37500000       0.37500000       0.43750000 </v>
   <v>       0.43750000       0.37500000       0.43750000 </v>
   <v>       0.50000000       0.37500000       0.43750000 </v>
   <v>      -0.43750000       0.37500000       0.43750000 </v>
   <v>       0.00000000       0.43750000       0.43750000 </v>
   <v>       0.06250000       0.43750000       0.43750000 </v>
   <v>       0.12500000       0.43750000       0.43750000 </v>
   <v>       0.18750000       0.43750000       0.43750000 </v>
   <v>       0.25000000       0.43750000       0.43750000 </v>
   <v>       0.31250000       0.43750000       0.43750000 </v>
   <v>       0.37500000       0.43750000       0.43750000 </v>
   <v>       0.43750000       0.43750000       0.43750000 </v>
   <v>       0.50000000       0.43750000       0.43750000 </v>
   <v>       0.00000000       0.50000000       0.43750000 </v>
   <v>       0.06250000       0.50000000       0.43750000 </v>
   <v>       0.12500000       0.50000000       0.43750000 </v>
   <v>       0.18750000       0.50000000       0.43750000 </v>
   <v>       0.25000000       0.50000000       0.43750000 </v>
   <v>       0.31250000       0.50000000       0.43750000 </v>
   <v>       0.37500000       0.50000000       0.43750000 </v>
   <v>       0.43750000       0.50000000       0.43750000 </v>
   <v>       0.00000000      -0.43750000       0.43750000 </v>
   <v>       0.06250000      -0.43750000       0.43750000 </v>
   <v>       0.12500000      -0.43750000       0.43750000 </v>
   <v>       0.18750000      -0.43750000       0.43750000 </v>
   <v>       0.25000000      -0.43750000       0.43750000 </v>
   <v>       0.31250000      -0.43750000       0.43750000 </v>
   <v>       0.37500000      -0.43750000       0.43750000 </v>
   <v>       0.00000000      -0.37500000       0.43750000 </v>
   <v>       0.06250000      -0.37500000       0.43750000 </v>
   <v>       0.12500000      -0.37500000       0.43750000 </v>
   <v>       0.18750000      -0.37500000       0.43750000 </v>
   <v>       0.25000000      -0.37500000       0.43750000 </v>
   <v>       0.31250000      -0.37500000       0.43750000 </v>
   <v>       0.00000000      -0.31250000       0.43750000 </v>
   <v>       0.06250000      -0.31250000       0.43750000 </v>
   <v>       0.12500000      -0.31250000       0.43750000 </v>
   <v>       0.18750000      -0.31250000       0.43750000 </v>
   <v>       0.25000000      -0.31250000       0.43750000 </v>
   <v>       0.00000000      -0.25000000       0.43750000 </v>
   <v>       0.06250000      -0.25000000       0.43750000 </v>
   <v>       0.12500000      -0.25000000       0.43750000 </v>
   <v>       0.18750000      -0.25000000       0.43750000 </v>
   <v>       0.00000000      -0.18750000       0.43750000 </v>
   <v>       0.06250000      -0.18750000       0.43750000 </v>
   <v>       0.12500000      -0.18750000       0.43750000 </v>
   <v>       0.00000000      -0.12500000       0.43750000 </v>
   <v>       0.06250000      -0.12500000       0.43750000 </v>
   <v>       0.00000000      -0.06250000       0.43750000 </v>
   <v>       0.00000000      -0.00000000       0.50000000 </v>
   <v>       0.06250000      -0.00000000       0.50000000 </v>
   <v>       0.12500000      -0.00000000       0.50000000 </v>
   <v>       0.18750000      -0.00000000       0.50000000 </v>
   <v>       0.25000000      -0.00000000       0.50000000 </v>
   <v>       0.31250000      -0.00000000       0.50000000 </v>
   <v>       0.37500000      -0.00000000       0.50000000 </v>
   <v>       0.43750000      -0.00000000       0.50000000 </v>
   <v>       0.50000000      -0.00000000       0.50000000 </v>
   <v>       0.00000000       0.06250000       0.50000000 </v>
   <v>       0.06250000       0.06250000       0.50000000 </v>
   <v>       0.12500000       0.06250000       0.50000000 </v>
   <v>       0.18750000       0.06250000       0.50000000 </v>
   <v>       0.25000000       0.06250000       0.50000000 </v>
   <v>       0.31250000       0.06250000       0.50000000 </v>
   <v>       0.37500000       0.06250000       0.50000000 </v>
   <v>       0.43750000       0.06250000       0.50000000 </v>
   <v>       0.50000000       0.06250000       0.50000000 </v>
   <v>      -0.43750000       0.06250000       0.50000000 </v>
   <v>      -0.37500000       0.06250000       0.50000000 </v>
   <v>      -0.31250000       0.06250000       0.50000000 </v>
   <v>      -0.25000000       0.06250000       0.50000000 </v>
   <v>      -0.18750000       0.06250000       0.50000000 </v>
   <v>      -0.12500000       0.06250000       0.50000000 </v>
   <v>       0.00000000       0.12500000       0.50000000 </v>
   <v>       0.06250000       0.12500000       0.50000000 </v>
   <v>       0.12500000       0.12500000       0.50000000 </v>
   <v>       0.18750000       0.12500000       0.50000000 </v>
   <v>       0.25000000       0.12500000       0.50000000 </v>
   <v>       0.31250000       0.12500000       0.50000000 </v>
   <v>       0.37500000       0.12500000       0.50000000 </v>
   <v>       0.43750000       0.12500000       0.50000000 </v>
   <v>       0.50000000       0.12500000       0.50000000 </v>
   <v>      -0.43750000       0.12500000       0.50000000 </v>
   <v>      -0.37500000       0.12500000       0.50000000 </v>
   <v>      -0.31250000       0.12500000       0.50000000 </v>
   <v>      -0.25000000       0.12500000       0.50000000 </v>
   <v>       0.00000000       0.18750000       0.50000000 </v>
   <v>       0.06250000       0.18750000       0.50000000 </v>
   <v>       0.12500000       0.18750000       0.50000000 </v>
   <v>       0.18750000       0.18750000       0.50000000 </v>
   <v>       0.25000000       0.18750000       0.50000000 </v>
   <v>       0.31250000       0.18750000       0.50000000 </v>
   <v>       0.37500000       0.18750000       0.50000000 </v>
   <v>       0.43750000       0.18750000       0.50000000 </v>
   <v>       0.50000000       0.18750000       0.50000000 </v>
   <v>      -0.43750000       0.18750000       0.50000000 </v>
   <v>      -0.37500000       0.18750000       0.50000000 </v>
   <v>       0.00000000       0.25000000       0.50000000 </v>
   <v>       0.06250000       0.25000000       0.50000000 </v>
   <v>       0.12500000       0.25000000       0.50000000 </v>
   <v>       0.18750000       0.25000000       0.50000000 </v>
   <v>       0.25000000       0.25000000       0.50000000 </v>
   <v>       0.31250000       0.25000000       0.50000000 </v>
   <v>       0.37500000       0.25000000       0.50000000 </v>
   <v>       0.43750000       0.25000000       0.50000000 </v>
   <v>       0.50000000       0.25000000       0.50000000 </v>
   <v>       0.00000000       0.31250000       0.50000000 </v>
   <v>       0.06250000       0.31250000       0.50000000 </v>
   <v>       0.12500000       0.31250000       0.50000000 </v>
   <v>       0.18750000       0.31250000       0.50000000 </v>
   <v>       0.25000000       0.31250000       0.50000000 </v>
   <v>       0.31250000       0.31250000       0.50000000 </v>
   <v>       0.37500000       0.31250000       0.50000000 </v>
   <v>       0.00000000       0.37500000       0.50000000 </v>
   <v>       0.06250000       0.37500000       0.50000000 </v>
   <v>       0.12500000       0.37500000       0.50000000 </v>
   <v>       0.18750000       0.37500000       0.50000000 </v>
   <v>       0.25000000       0.37500000       0.50000000 </v>
   <v>       0.00000000       0.43750000       0.50000000 </v>
   <v>       0.06250000       0.43750000       0.50000000 </v>
   <v>       0.12500000       0.43750000       0.50000000 </v>
   <v>       0.00000000       0.50000000       0.50000000 </v>
  </varray>
  <varray name="weights" >
   <v>       0.00024414 </v>
   <v>       0.00097656 </v>
   <v>       0.00097656 </v>
   <v>       0.00097656 </v>
   <v>       0.00097656 </v>
   <v>       0.00097656 </v>
   <v>       0.00097656 </v>
   <v>       0.00097656 </v>
   <v>       0.00048828 </v>
   <v>       0.00048828 </v>
   <v>       0.00097656 </v>
   <v>       0.00097656 </v>
   <v>       0.00097656 </v>
   <v>       0.00097656 </v>
   <v>       0.00097656 </v>
   <v>       0.00097656 </v>
   <v>       0.00097656 </v>
   <v>       0.00097656 </v>
   <v>       0.00097656 </v>
   <v>       0.00097656 </v>
   <v>       0.00097656 </v>
   <v>       0.00097656 </v>
   <v>       0.00097656 </v>
   <v>       0.00048828 </v>
   <v>       0.00048828 </v>
   <v>       0.00097656 </v>
   <v>       0.00097656 </v>
   <v>       0.00097656 </v>
   <v>       0.00097656 </v>
   <v>       0.00097656 </v>
   <v>       0.00097656 </v>
   <v>       0.00097656 </v>
   <v>       0.00097656 </v>
   <v>       0.00097656 </v>
   <v>       0.00097656 </v>
   <v>       0.00097656 </v>
   <v>       0.00048828 </v>
   <v>       0.00048828 </v>
   <v>       0.00097656 </v>
   <v>       0.00097656 </v>
   <v>       0.00097656 </v>
   <v>       0.00097656 </v>
   <v>       0.00097656 </v>
   <v>       0.00097656 </v>
   <v>       0.00097656 </v>
   <v>       0.00097656 </v>
   <v>       0.00097656 </v>
   <v>       0.00048828 </v>
   <v>       0.00048828 </v>
   <v>       0.00097656 </v>
   <v>       0.00097656 </v>
   <v>       0.00097656 </v>
   <v>       0.00097656 </v>
   <v>       0.00097656 </v>
   <v>       0.00097656 </v>
   <v>       0.00097656 </v>
   <v>       0.00048828 </v>
   <v>       0.00048828 </v>
   <v>       0.00097656 </v>
   <v>       0.00097656 </v>
   <v>       0.00097656 </v>
   <v>       0.00097656 </v>
   <v>       0.00097656 </v>
   <v>       0.00048828 </v>
   <v>       0.00048828 </v>
   <v>       0.00097656 </v>
   <v>       0.00097656 </v>
   <v>       0.00097656 </v>
   <v>       0.00048828 </v>
   <v>       0.00048828 </v>
   <v>       0.00097656 </v>
   <v>       0.00048828 </v>
   <v>       0.00024414 </v>
   <v>       0.00048828 </v>
   <v>       0.00097656 </v>
   <v>       0.00097656 </v>
   <v>       0.00097656 </v>
   <v>       0.00097656 </v>
   <v>       0.00097656 </v>
   <v>       0.00097656 </v>
   <v>       0.00097656 </v>
   <v>       0.00097656 </v>
   <v>       0.00097656 </v>
   <v>       0.00097656 </v>
   <v>       0.00097656 </v>
   <v>       0.00097656 </v>
   <v>       0.00097656 </v>
   <v>       0.00097656 </v>
   <v>       0.00097656 </v>
   <v>       0.00048828 </v>
   <v>       0.00097656 </v>
   <v>       0.00097656 </v>
   <v>       0.00097656 </v>
   <v>       0.00097656 </v>
   <v>       0.00097656 </v>
   <v>       0.00097656 </v>
   <v>       0.00097656 </v>
   <v>       0.00097656 </v>
   <v>       0.00097656 </v>
   <v>       0.00097656 </v>
   <v>       0.00097656 </v>
   <v>       0.00097656 </v>
   <v>       0.00097656 </v>
   <v>       0.00097656 </v>
   <v>       0.00048828 </v>
   <v>       0.00097656 </v>
   <v>       0.00097656 </v>
   <v>       0.00097656 </v>
   <v>       0.00097656 </v>
   <v>       0.00097656 </v>
   <v>       0.00097656 </v>
   <v>       0.00097656 </v>
   <v>       0.00097656 </v>
   <v>       0.00097656 </v>
   <v>       0.00097656 </v>
   <v>       0.00097656 </v>
   <v>       0.00097656 </v>
   <v>       0.00097656 </v>
   <v>       0.00048828 </v>
   <v>       0.00097656 </v>
   <v>       0.00097656 </v>
   <v>       0.00097656 </v>
   <v>       0.00097656 </v>
   <v>       0.00097656 </v>
   <v>       0.00097656 </v>
   <v>       0.00097656 </v>
   <v>       0.00097656 </v>
   <v>       0.00097656 </v>
   <v>       0.00097656 </v>
   <v>       0.00097656 </v>
   <v>       0.00097656 </v>
   <v>       0.00048828 </v>
   <v>       0.00097656 </v>
   <v>       0.00097656 </v>
   <v>       0.00097656 </v>
   <v>       0.00097656 </v>
   <v>       0.00097656 </v>
   <v>       0.00097656 </v>
   <v>       0.00097656 </v>
   <v>       0.00097656 </v>
   <v>       0.00097656 </v>
   <v>       0.00097656 </v>
   <v>       0.00097656 </v>
   <v>       0.00048828 </v>
   <v>       0.00097656 </v>
   <v>       0.00097656 </v>
   <v>       0.00097656 </v>
   <v>       0.00097656 </v>
   <v>       0.00097656 </v>
   <v>       0.00097656 </v>
   <v>       0.00097656 </v>
   <v>       0.00097656 </v>
   <v>       0.00097656 </v>
   <v>       0.00097656 </v>
   <v>       0.00048828 </v>
   <v>       0.00097656 </v>
   <v>       0.00097656 </v>
   <v>       0.00097656 </v>
   <v>       0.00097656 </v>
   <v>       0.00097656 </v>
   <v>       0.00097656 </v>
   <v>       0.00097656 </v>
   <v>       0.00097656 </v>
   <v>       0.00097656 </v>
   <v>       0.00048828 </v>
   <v>       0.00097656 </v>
   <v>       0.00097656 </v>
   <v>       0.00097656 </v>
   <v>       0.00097656 </v>
   <v>       0.00097656 </v>
   <v>       0.00097656 </v>
   <v>       0.00097656 </v>
   <v>       0.00097656 </v>
   <v>       0.00048828 </v>
   <v>       0.00097656 </v>
   <v>       0.00097656 </v>
   <v>       0.00097656 </v>
   <v>       0.00097656 </v>
   <v>       0.00097656 </v>
   <v>       0.00097656 </v>
   <v>       0.00097656 </v>
   <v>       0.00048828 </v>
   <v>       0.00097656 </v>
   <v>       0.00097656 </v>
   <v>       0.00097656 </v>
   <v>       0.00097656 </v>
   <v>       0.00097656 </v>
   <v>       0.00097656 </v>
   <v>       0.00048828 </v>
   <v>       0.00097656 </v>
   <v>       0.00097656 </v>
   <v>       0.00097656 </v>
   <v>       0.00097656 </v>
   <v>       0.00097656 </v>
   <v>       0.00048828 </v>
   <v>       0.00097656 </v>
   <v>       0.00097656 </v>
   <v>       0.00097656 </v>
   <v>       0.00097656 </v>
   <v>       0.00048828 </v>
   <v>       0.00097656 </v>
   <v>       0.00097656 </v>
   <v>       0.00097656 </v>
   <v>       0.00048828 </v>
   <v>       0.00097656 </v>
   <v>       0.00097656 </v>
   <v>       0.00048828 </v>
   <v>       0.00097656 </v>
   <v>       0.00048828 </v>
   <v>       0.00048828 </v>
   <v>       0.00097656 </v>
   <v>       0.00097656 </v>
   <v>       0.00097656 </v>
   <v>       0.00097656 </v>
   <v>       0.00097656 </v>
   <v>       0.00097656 </v>
   <v>       0.00097656 </v>
   <v>       0.00097656 </v>
   <v>       0.00097656 </v>
   <v>       0.00097656 </v>
   <v>       0.00097656 </v>
   <v>       0.00097656 </v>
   <v>       0.00097656 </v>
   <v>       0.00097656 </v>
   <v>       0.00097656 </v>
   <v>       0.00048828 </v>
   <v>       0.00097656 </v>
   <v>       0.00097656 </v>
   <v>       0.00097656 </v>
   <v>       0.00097656 </v>
   <v>       0.00097656 </v>
   <v>       0.00097656 </v>
   <v>       0.00097656 </v>
   <v>       0.00097656 </v>
   <v>       0.00097656 </v>
   <v>       0.00097656 </v>
   <v>       0.00097656 </v>
   <v>       0.00097656 </v>
   <v>       0.00097656 </v>
   <v>       0.00097656 </v>
   <v>       0.00048828 </v>
   <v>       0.00097656 </v>
   <v>       0.00097656 </v>
   <v>       0.00097656 </v>
   <v>       0.00097656 </v>
   <v>       0.00097656 </v>
   <v>       0.00097656 </v>
   <v>       0.00097656 </v>
   <v>       0.00097656 </v>
   <v>       0.00097656 </v>
   <v>       0.00097656 </v>
   <v>       0.00097656 </v>
   <v>       0.00097656 </v>
   <v>       0.00097656 </v>
   <v>       0.00048828 </v>
   <v>       0.00097656 </v>
   <v>       0.00097656 </v>
   <v>       0.00097656 </v>
   <v>       0.00097656 </v>
   <v>       0.00097656 </v>
   <v>       0.00097656 </v>
   <v>       0.00097656 </v>
   <v>       0.00097656 </v>
   <v>       0.00097656 </v>
   <v>       0.00097656 </v>
   <v>       0.00097656 </v>
   <v>       0.00097656 </v>
   <v>       0.00048828 </v>
   <v>       0.00097656 </v>
   <v>       0.00097656 </v>
   <v>       0.00097656 </v>
   <v>       0.00097656 </v>
   <v>       0.00097656 </v>
   <v>       0.00097656 </v>
   <v>       0.00097656 </v>
   <v>       0.00097656 </v>
   <v>       0.00097656 </v>
   <v>       0.00097656 </v>
[...]
       <r>    9.1622    0.0000 </r>
       <r>    9.3567    0.0000 </r>
       <r>   10.3572    0.0000 </r>
       <r>   11.3081    0.0000 </r>
       <r>   13.1130    0.0000 </r>
       <r>   14.0217    0.0000 </r>
       <r>   16.5905    0.0000 </r>
      </set>
      <set comment="kpoint 1060">
       <r>   -3.9407    1.0000 </r>
       <r>    0.6921    1.0000 </r>
       <r>    1.2999    1.0000 </r>
       <r>    2.0752    1.0000 </r>
       <r>    4.4334    1.0000 </r>
       <r>    8.7439    0.0000 </r>
       <r>    9.1946    0.0000 </r>
       <r>    9.8956    0.0000 </r>
       <r>   10.9377    0.0000 </r>
       <r>   13.6604    0.0000 </r>
       <r>   14.5436    0.0000 </r>
       <r>   17.6248    0.0000 </r>
      </set>
      <set comment="kpoint 1061">
       <r>   -4.2574    1.0000 </r>
       <r>    0.6379    1.0000 </r>
       <r>    1.5886    1.0000 </r>
       <r>    2.5277    1.0000 </r>
       <r>    4.9312    1.0000 </r>
       <r>    8.2691    0.0000 </r>
       <r>    9.0579    0.0000 </r>
       <r>    9.4141    0.0000 </r>
       <r>   10.3240    0.0000 </r>
       <r>   14.0354    0.0000 </r>
       <r>   15.1021    0.0000 </r>
       <r>   17.0521    0.0000 </r>
      </set>
      <set comment="kpoint 1062">
       <r>   -4.5076    1.0000 </r>
       <r>    0.0608    1.0000 </r>
       <r>    2.4956    1.0000 </r>
       <r>    3.0963    1.0000 </r>
       <r>    5.4697    1.0000 </r>
       <r>    7.8440    0.0000 </r>
       <r>    8.8592    0.0000 </r>
       <r>    8.9776    0.0000 </r>
       <r>    9.5513    0.0000 </r>
       <r>   14.1079    0.0000 </r>
       <r>   15.5869    0.0000 </r>
       <r>   16.8073    0.0000 </r>
      </set>
      <set comment="kpoint 1063">
       <r>   -4.6170    1.0000 </r>
       <r>   -0.2012    1.0000 </r>
       <r>    2.8861    1.0000 </r>
       <r>    3.5496    1.0000 </r>
       <r>    5.7548    1.0000 </r>
       <r>    7.6620    0.0000 </r>
       <r>    8.5684    0.0000 </r>
       <r>    8.8770    0.0000 </r>
       <r>    9.1160    0.0000 </r>
       <r>   14.0129    0.0000 </r>
       <r>   15.4850    0.0000 </r>
       <r>   17.9062    0.0000 </r>
      </set>
      <set comment="kpoint 1064">
       <r>   -4.4746    1.0000 </r>
       <r>    0.1467    1.0000 </r>
       <r>    2.2811    1.0000 </r>
       <r>    3.0904    1.0000 </r>
       <r>    5.3747    1.0000 </r>
       <r>    7.9189    0.0000 </r>
       <r>    8.9271    0.0000 </r>
       <r>    8.9916    0.0000 </r>
       <r>    9.6707    0.0000 </r>
       <r>   14.0945    0.0000 </r>
       <r>   15.2062    0.0000 </r>
       <r>   17.4669    0.0000 </r>
      </set>
      <set comment="kpoint 1065">
       <r>   -4.2593    1.0000 </r>
       <r>    0.6399    1.0000 </r>
       <r>    1.5828    1.0000 </r>
       <r>    2.5341    1.0000 </r>
       <r>    4.9231    1.0000 </r>
       <r>    8.2828    0.0000 </r>
       <r>    9.0568    0.0000 </r>
       <r>    9.3988    0.0000 </r>
       <r>   10.3386    0.0000 </r>
       <r>   14.0389    0.0000 </r>
       <r>   15.1078    0.0000 </r>
       <r>   17.0218    0.0000 </r>
      </set>
      <set comment="kpoint 1066">
       <r>   -3.9717    1.0000 </r>
       <r>    0.8205    1.0000 </r>
       <r>    1.2366    1.0000 </r>
       <r>    2.0373    1.0000 </r>
       <r>    4.4741    1.0000 </r>
       <r>    8.7178    0.0000 </r>
       <r>    9.1868    0.0000 </r>
       <r>    9.8097    0.0000 </r>
       <r>   10.9425    0.0000 </r>
       <r>   13.7654    0.0000 </r>
       <r>   15.1111    0.0000 </r>
       <r>   16.9870    0.0000 </r>
      </set>
      <set comment="kpoint 1067">
       <r>   -3.6187    1.0000 </r>
       <r>    0.0500    1.0000 </r>
       <r>    1.6112    1.0000 </r>
       <r>    1.9280    1.0000 </r>
       <r>    4.0736    1.0000 </r>
       <r>    9.1186    0.0000 </r>
       <r>    9.3767    0.0000 </r>
       <r>   10.2024    0.0000 </r>
       <r>   11.3183    0.0000 </r>
       <r>   13.2758    0.0000 </r>
       <r>   15.0550    0.0000 </r>
       <r>   16.0887    0.0000 </r>
      </set>
      <set comment="kpoint 1068">
       <r>   -3.2279    1.0000 </r>
       <r>   -0.6486    1.0000 </r>
       <r>    1.3777    1.0000 </r>
       <r>    2.5205    1.0000 </r>
       <r>    3.7347    1.0000 </r>
       <r>    9.2772    0.0000 </r>
       <r>    9.7502    0.0000 </r>
       <r>   10.5646    0.0000 </r>
       <r>   11.4295    0.0000 </r>
       <r>   12.6983    0.0000 </r>
       <r>   14.8270    0.0000 </r>
       <r>   15.3498    0.0000 </r>
      </set>
      <set comment="kpoint 1069">
       <r>   -2.9038    1.0000 </r>
       <r>   -1.1346    1.0000 </r>
       <r>    1.2531    1.0000 </r>
       <r>    3.0002    1.0000 </r>
       <r>    3.4400    1.0000 </r>
       <r>    9.3219    0.0000 </r>
       <r>   10.0541    0.0000 </r>
       <r>   10.8428    0.0000 </r>
       <r>   11.3656    0.0000 </r>
       <r>   12.2810    0.0000 </r>
       <r>   14.6752    0.0000 </r>
       <r>   15.0180    0.0000 </r>
      </set>
      <set comment="kpoint 1070">
       <r>   -2.9033    1.0000 </r>
       <r>   -1.1343    1.0000 </r>
       <r>    1.2547    1.0000 </r>
       <r>    2.9851    1.0000 </r>
       <r>    3.4539    1.0000 </r>
       <r>    9.3225    0.0000 </r>
       <r>   10.0503    0.0000 </r>
       <r>   10.8558    0.0000 </r>
       <r>   11.3524    0.0000 </r>
       <r>   12.2817    0.0000 </r>
       <r>   14.9661    0.0000 </r>
       <r>   18.8422    0.0000 </r>
      </set>
      <set comment="kpoint 1071">
       <r>   -3.2267    1.0000 </r>
       <r>   -0.6476    1.0000 </r>
       <r>    1.3834    1.0000 </r>
       <r>    2.5016    1.0000 </r>
       <r>    3.7487    1.0000 </r>
       <r>    9.2776    0.0000 </r>
       <r>    9.7433    0.0000 </r>
       <r>   10.5805    0.0000 </r>
       <r>   11.4150    0.0000 </r>
       <r>   12.6936    0.0000 </r>
       <r>   14.8476    0.0000 </r>
       <r>   15.3247    0.0000 </r>
      </set>
      <set comment="kpoint 1072">
       <r>   -3.6171    1.0000 </r>
       <r>    0.0521    1.0000 </r>
       <r>    1.6401    1.0000 </r>
       <r>    1.8884    1.0000 </r>
       <r>    4.0852    1.0000 </r>
       <r>    9.1112    0.0000 </r>
       <r>    9.3767    0.0000 </r>
       <r>   10.2161    0.0000 </r>
       <r>   11.3062    0.0000 </r>
       <r>   13.2625    0.0000 </r>
       <r>   15.2441    0.0000 </r>
       <r>   16.5445    0.0000 </r>
      </set>
      <set comment="kpoint 1073">
       <r>   -3.9698    1.0000 </r>
       <r>    0.8242    1.0000 </r>
       <r>    1.2397    1.0000 </r>
       <r>    2.0254    1.0000 </r>
       <r>    4.4836    1.0000 </r>
       <r>    8.7046    0.0000 </r>
       <r>    9.1909    0.0000 </r>
       <r>    9.8228    0.0000 </r>
       <r>   10.9297    0.0000 </r>
       <r>   13.7502    0.0000 </r>
       <r>   15.1262    0.0000 </r>
       <r>   16.9253    0.0000 </r>
      </set>
      <set comment="kpoint 1074">
       <r>   -4.3699    1.0000 </r>
       <r>    0.3927    1.0000 </r>
       <r>    1.8303    1.0000 </r>
       <r>    2.9189    1.0000 </r>
       <r>    5.1349    1.0000 </r>
       <r>    8.0973    0.0000 </r>
       <r>    8.9961    0.0000 </r>
       <r>    9.2156    0.0000 </r>
       <r>    9.9664    0.0000 </r>
       <r>   14.0363    0.0000 </r>
       <r>   14.7463    0.0000 </r>
       <r>   18.5588    0.0000 </r>
      </set>
      <set comment="kpoint 1075">
       <r>   -4.1931    1.0000 </r>
       <r>    0.7845    1.0000 </r>
       <r>    1.2872    1.0000 </r>
       <r>    2.5467    1.0000 </r>
       <r>    4.7967    1.0000 </r>
       <r>    8.3844    0.0000 </r>
       <r>    9.0797    0.0000 </r>
       <r>    9.5481    0.0000 </r>
       <r>   10.4297    0.0000 </r>
       <r>   13.8986    0.0000 </r>
       <r>   14.5041    0.0000 </r>
       <r>   18.1146    0.0000 </r>
      </set>
      <set comment="kpoint 1076">
       <r>   -3.9427    1.0000 </r>
       <r>    0.6841    1.0000 </r>
       <r>    1.3016    1.0000 </r>
       <r>    2.0849    1.0000 </r>
       <r>    4.4252    1.0000 </r>
       <r>    8.7565    0.0000 </r>
       <r>    9.1895    0.0000 </r>
       <r>    9.8847    0.0000 </r>
       <r>   10.9533    0.0000 </r>
       <r>   13.6626    0.0000 </r>
       <r>   14.5620    0.0000 </r>
       <r>   17.4602    0.0000 </r>
      </set>
      <set comment="kpoint 1077">
       <r>   -3.6189    1.0000 </r>
       <r>    0.0475    1.0000 </r>
       <r>    1.6167    1.0000 </r>
       <r>    1.9229    1.0000 </r>
       <r>    4.0750    1.0000 </r>
       <r>    9.1185    0.0000 </r>
       <r>    9.3762    0.0000 </r>
       <r>   10.2047    0.0000 </r>
       <r>   11.3190    0.0000 </r>
       <r>   13.2735    0.0000 </r>
       <r>   15.0551    0.0000 </r>
       <r>   16.1081    0.0000 </r>
      </set>
      <set comment="kpoint 1078">
       <r>   -3.2291    1.0000 </r>
       <r>   -0.6049    1.0000 </r>
       <r>    1.3068    1.0000 </r>
       <r>    2.4946    1.0000 </r>
       <r>    3.7800    1.0000 </r>
       <r>    9.2625    0.0000 </r>
       <r>    9.7927    0.0000 </r>
       <r>   10.5087    0.0000 </r>
       <r>   11.4280    0.0000 </r>
       <r>   12.7377    0.0000 </r>
       <r>   15.0153    0.0000 </r>
       <r>   16.1852    0.0000 </r>
      </set>
      <set comment="kpoint 1079">
       <r>   -2.8098    1.0000 </r>
       <r>   -1.2010    1.0000 </r>
       <r>    1.1113    1.0000 </r>
       <r>    2.9885    1.0000 </r>
       <r>    3.5426    1.0000 </r>
       <r>    9.3039    0.0000 </r>
       <r>   10.2548    0.0000 </r>
       <r>   10.7777    0.0000 </r>
       <r>   11.3612    0.0000 </r>
       <r>   12.1634    0.0000 </r>
       <r>   14.4284    0.0000 </r>
       <r>   16.1918    0.0000 </r>
      </set>
      <set comment="kpoint 1080">
       <r>   -2.5598    1.0000 </r>
       <r>   -1.5129    1.0000 </r>
       <r>    1.0469    1.0000 </r>
       <r>    3.2964    1.0000 </r>
       <r>    3.3392    1.0000 </r>
       <r>    9.3120    0.0000 </r>
       <r>   10.4991    0.0000 </r>
       <r>   10.9326    0.0000 </r>
       <r>   11.2643    0.0000 </r>
       <r>   11.8653    0.0000 </r>
       <r>   14.2327    0.0000 </r>
       <r>   16.1684    0.0000 </r>
      </set>
      <set comment="kpoint 1081">
       <r>   -2.8090    1.0000 </r>
       <r>   -1.1999    1.0000 </r>
       <r>    1.1135    1.0000 </r>
       <r>    2.9700    1.0000 </r>
       <r>    3.5591    1.0000 </r>
       <r>    9.3052    0.0000 </r>
       <r>   10.2443    0.0000 </r>
       <r>   10.8013    0.0000 </r>
       <r>   11.3396    0.0000 </r>
       <r>   12.1651    0.0000 </r>
       <r>   14.4279    0.0000 </r>
       <r>   16.1705    0.0000 </r>
      </set>
      <set comment="kpoint 1082">
       <r>   -3.2277    1.0000 </r>
       <r>   -0.6024    1.0000 </r>
       <r>    1.3121    1.0000 </r>
       <r>    2.4765    1.0000 </r>
       <r>    3.7930    1.0000 </r>
       <r>    9.2636    0.0000 </r>
       <r>    9.7843    0.0000 </r>
       <r>   10.5233    0.0000 </r>
       <r>   11.4147    0.0000 </r>
       <r>   12.7308    0.0000 </r>
       <r>   15.0214    0.0000 </r>
       <r>   16.0475    0.0000 </r>
      </set>
      <set comment="kpoint 1083">
       <r>   -4.0590    1.0000 </r>
       <r>    0.8432    1.0000 </r>
       <r>    1.0859    1.0000 </r>
       <r>    2.4204    1.0000 </r>
       <r>    4.5700    1.0000 </r>
       <r>    8.5830    0.0000 </r>
       <r>    9.1287    0.0000 </r>
       <r>    9.8172    0.0000 </r>
       <r>   10.6409    0.0000 </r>
       <r>   13.6471    0.0000 </r>
       <r>   14.0475    0.0000 </r>
       <r>   19.4006    0.0000 </r>
      </set>
      <set comment="kpoint 1084">
       <r>   -3.8545    1.0000 </r>
       <r>    0.3761    1.0000 </r>
       <r>    1.4828    1.0000 </r>
       <r>    2.1317    1.0000 </r>
       <r>    4.2867    1.0000 </r>
       <r>    8.8681    0.0000 </r>
       <r>    9.2046    0.0000 </r>
       <r>   10.1053    0.0000 </r>
       <r>   10.9931    0.0000 </r>
       <r>   13.4016    0.0000 </r>
       <r>   13.8225    0.0000 </r>
       <r>   17.8118    0.0000 </r>
      </set>
      <set comment="kpoint 1085">
       <r>   -3.5776    1.0000 </r>
       <r>   -0.1246    1.0000 </r>
       <r>    1.7349    1.0000 </r>
       <r>    1.9962    1.0000 </r>
       <r>    3.9961    1.0000 </r>
       <r>    9.1668    0.0000 </r>
       <r>    9.3546    0.0000 </r>
       <r>   10.3510    0.0000 </r>
       <r>   11.3224    0.0000 </r>
       <r>   13.1181    0.0000 </r>
       <r>   14.0463    0.0000 </r>
       <r>   16.4673    0.0000 </r>
      </set>
      <set comment="kpoint 1086">
       <r>   -3.2279    1.0000 </r>
       <r>   -0.6529    1.0000 </r>
       <r>    1.3813    1.0000 </r>
       <r>    2.5140    1.0000 </r>
       <r>    3.7404    1.0000 </r>
       <r>    9.2751    0.0000 </r>
       <r>    9.7485    0.0000 </r>
       <r>   10.5744    0.0000 </r>
       <r>   11.4244    0.0000 </r>
       <r>   12.7052    0.0000 </r>
       <r>   14.8890    0.0000 </r>
       <r>   15.2895    0.0000 </r>
      </set>
      <set comment="kpoint 1087">
       <r>   -2.8096    1.0000 </r>
       <r>   -1.2032    1.0000 </r>
       <r>    1.1121    1.0000 </r>
       <r>    2.9837    1.0000 </r>
       <r>    3.5477    1.0000 </r>
       <r>    9.3028    0.0000 </r>
       <r>   10.2505    0.0000 </r>
       <r>   10.7912    0.0000 </r>
       <r>   11.3501    0.0000 </r>
       <r>   12.1722    0.0000 </r>
       <r>   14.4293    0.0000 </r>
       <r>   16.1731    0.0000 </r>
      </set>
      <set comment="kpoint 1088">
       <r>   -2.3454    1.0000 </r>
       <r>   -1.7394    1.0000 </r>
       <r>    0.9725    1.0000 </r>
       <r>    3.2922    1.0000 </r>
       <r>    3.4221    1.0000 </r>
       <r>    9.3029    0.0000 </r>
       <r>   10.7844    0.0000 </r>
       <r>   10.9830    0.0000 </r>
       <r>   11.2196    0.0000 </r>
       <r>   11.5755    0.0000 </r>
       <r>   14.0007    0.0000 </r>
       <r>   17.6469    0.0000 </r>
      </set>
      <set comment="kpoint 1089">
       <r>   -2.3457    1.0000 </r>
       <r>   -1.7379    1.0000 </r>
       <r>    0.9730    1.0000 </r>
       <r>    3.2757    1.0000 </r>
       <r>    3.4378    1.0000 </r>
       <r>    9.3038    0.0000 </r>
       <r>   10.7678    0.0000 </r>
       <r>   11.0365    0.0000 </r>
       <r>   11.1730    0.0000 </r>
       <r>   11.5807    0.0000 </r>
       <r>   14.0006    0.0000 </r>
       <r>   17.6991    0.0000 </r>
      </set>
      <set comment="kpoint 1090">
       <r>   -3.7056    1.0000 </r>
       <r>    0.0080    1.0000 </r>
       <r>    1.7700    1.0000 </r>
       <r>    2.0604    1.0000 </r>
       <r>    4.0841    1.0000 </r>
       <r>    9.0492    0.0000 </r>
       <r>    9.2403    0.0000 </r>
       <r>   10.4129    0.0000 </r>
       <r>   11.1119    0.0000 </r>
       <r>   13.0504    0.0000 </r>
       <r>   13.3739    0.0000 </r>
       <r>   19.5986    0.0000 </r>
      </set>
      <set comment="kpoint 1091">
       <r>   -3.4952    1.0000 </r>
       <r>   -0.3726    1.0000 </r>
       <r>    1.8459    1.0000 </r>
       <r>    2.1474    1.0000 </r>
       <r>    3.8538    1.0000 </r>
       <r>    9.2511    0.0000 </r>
       <r>    9.3388    0.0000 </r>
       <r>   10.6445    0.0000 </r>
       <r>   11.3338    0.0000 </r>
       <r>   12.8694    0.0000 </r>
       <r>   13.1768    0.0000 </r>
       <r>   17.1564    0.0000 </r>
      </set>
      <set comment="kpoint 1092">
       <r>   -3.2250    1.0000 </r>
       <r>   -0.7548    1.0000 </r>
       <r>    1.5492    1.0000 </r>
       <r>    2.5725    1.0000 </r>
       <r>    3.6337    1.0000 </r>
       <r>    9.3052    0.0000 </r>
       <r>    9.6508    0.0000 </r>
       <r>   10.7695    0.0000 </r>
       <r>   11.4208    0.0000 </r>
       <r>   12.6427    0.0000 </r>
       <r>   13.6702    0.0000 </r>
       <r>   15.9642    0.0000 </r>
      </set>
      <set comment="kpoint 1093">
       <r>   -2.9032    1.0000 </r>
       <r>   -1.1407    1.0000 </r>
       <r>    1.2559    1.0000 </r>
       <r>    2.9850    1.0000 </r>
       <r>    3.4558    1.0000 </r>
       <r>    9.3186    0.0000 </r>
       <r>   10.0494    0.0000 </r>
       <r>   10.8679    0.0000 </r>
       <r>   11.3439    0.0000 </r>
       <r>   12.3003    0.0000 </r>
       <r>   14.7705    0.0000 </r>
       <r>   14.9212    0.0000 </r>
      </set>
      <set comment="kpoint 1094">
       <r>   -2.5590    1.0000 </r>
       <r>   -1.5168    1.0000 </r>
       <r>    1.0472    1.0000 </r>
       <r>    3.2813    1.0000 </r>
       <r>    3.3555    1.0000 </r>
       <r>    9.3100    0.0000 </r>
       <r>   10.4904    0.0000 </r>
       <r>   10.9689    0.0000 </r>
       <r>   11.2314    0.0000 </r>
       <r>   11.8825    0.0000 </r>
       <r>   14.2326    0.0000 </r>
       <r>   16.1722    0.0000 </r>
      </set>
      <set comment="kpoint 1095">
       <r>   -3.3742    1.0000 </r>
       <r>   -0.6242    1.0000 </r>
       <r>    1.8430    1.0000 </r>
       <r>    2.3763    1.0000 </r>
       <r>    3.6787    1.0000 </r>
       <r>    9.3146    0.0000 </r>
       <r>    9.3995    0.0000 </r>
       <r>   11.0012    0.0000 </r>
       <r>   11.3837    0.0000 </r>
       <r>   12.4594    0.0000 </r>
       <r>   12.8141    0.0000 </r>
       <r>   17.4697    0.0000 </r>
      </set>
      <set comment="kpoint 1096">
       <r>   -3.2219    1.0000 </r>
       <r>   -0.8447    1.0000 </r>
       <r>    1.7071    1.0000 </r>
       <r>    2.6469    1.0000 </r>
       <r>    3.5118    1.0000 </r>
       <r>    9.3317    0.0000 </r>
       <r>    9.5640    0.0000 </r>
       <r>   11.1103    0.0000 </r>
       <r>   11.4198    0.0000 </r>
       <r>   12.5637    0.0000 </r>
       <r>   12.6866    0.0000 </r>
       <r>   16.8004    0.0000 </r>
      </set>
      <set comment="kpoint 1097">
       <r>   -3.0548    1.0000 </r>
       <r>   -1.0192    1.0000 </r>
       <r>    1.4837    1.0000 </r>
       <r>    2.8871    1.0000 </r>
       <r>    3.4122    1.0000 </r>
       <r>    9.3334    0.0000 </r>
       <r>    9.7900    0.0000 </r>
       <r>   11.0000    0.0000 </r>
       <r>   11.3611    0.0000 </r>
       <r>   12.4552    0.0000 </r>
       <r>   13.5327    0.0000 </r>
       <r>   15.7863    0.0000 </r>
      </set>
      <set comment="kpoint 1098">
       <r>   -3.2206    1.0000 </r>
       <r>   -0.8793    1.0000 </r>
       <r>    1.7703    1.0000 </r>
       <r>    2.6851    1.0000 </r>
       <r>    3.4542    1.0000 </r>
       <r>    9.3404    0.0000 </r>
       <r>    9.5321    0.0000 </r>
       <r>   11.3951    0.0000 </r>
       <r>   11.4719    0.0000 </r>
       <r>   12.0652    0.0000 </r>
       <r>   12.5974    0.0000 </r>
       <r>   20.2056    0.0000 </r>
      </set>
     </set>
    </set>
   </array>
  </eigenvalues>
  <separator name="orbital magnetization" >
   <v name="MAGDIPOLOUT">      0.00000000      0.00000000      0.00000000</v>
  </separator>
 </calculation>
 <structure name="finalpos" >
  <crystal>
   <varray name="basis" >
    <v>       3.03293523       0.00000000       0.00000000 </v>
    <v>      -1.51646762       2.62659896      -0.03939898 </v>
    <v>       0.00000000      -0.04838534       3.12891883 </v>
   </varray>
   <i name="volume">     24.92013841 </i>
   <varray name="rec_basis" >
    <v>       0.32971360       0.19040440       0.00294440 </v>
    <v>       0.00000000       0.38080881       0.00588880 </v>
    <v>       0.00000000       0.00479510       0.31967337 </v>
   </varray>
  </crystal>
  <varray name="positions" >
   <v>       0.00000000       0.00000000       0.00000000 </v>
   <v>       0.33340133       0.66680266       0.50000991 </v>
   <v>       0.66659867       0.33319734       0.49999009 </v>
  </varray>
 </structure>
</modeling>
