unknown system                          
           1
     3.032935    0.000000    0.000000
    -1.516468    2.626599   -0.039399
     0.000000   -0.048385    3.128919
   Ti   B 
   1   2
Direct configuration=     1
   0.00000000  0.00000000  0.00000000
   0.33333333  0.66666667  0.50000000
   0.66666667  0.33333333  0.50000000
Direct configuration=     2
   0.00000000  0.00000000  0.00000000
   0.33340133  0.66680266  0.50000991
   0.66659867  0.33319734  0.49999009
