 vasp.5.4.4.18Apr17-6-g9f103f2a35 (build Nov 22 2017 20:28:56) complex          
  
 executed on             LinuxIFC date 2019.10.07  17:15:48
 running on   28 total cores
 distrk:  each k-point on   28 cores,    1 groups
 distr:  one band on NCORES_PER_BAND=   7 cores,    4 groups


--------------------------------------------------------------------------------------------------------


 INCAR:
 POTCAR:    PAW_PBE Au 04Oct2007                  
 POTCAR:    PAW_PBE Se 06Sep2000                  
 POTCAR:    PAW_PBE Au 04Oct2007                  
   VRHFIN =Au: s1d10                                                            
   LEXCH  = PE                                                                  
   EATOM  =   926.0867 eV,   68.0654 Ry                                         
                                                                                
   TITEL  = PAW_PBE Au 04Oct2007                                                
   LULTRA =        F    use ultrasoft PP ?                                      
   IUNSCR =        1    unscreen: 0-lin 1-nonlin 2-no                           
   RPACOR =    2.330    partial core radius                                     
   POMASS =  196.966; ZVAL   =   11.000    mass and valenz                      
   RCORE  =    2.500    outmost cutoff radius                                   
   RWIGS  =    2.840; RWIGS  =    1.503    wigner-seitz radius (au A)           
   ENMAX  =  229.943; ENMIN  =  172.457 eV                                      
   ICORE  =        3    local potential                                         
   LCOR   =        T    correct aug charges                                     
   LPAW   =        T    paw PP                                                  
   EAUG   =  356.670                                                            
   DEXC   =    0.000                                                            
   RMAX   =    2.562    core radius for proj-oper                               
   RAUG   =    1.300    factor for augmentation sphere                          
   RDEP   =    2.598    radius for radial grids                                 
   RDEPT  =    2.193    core radius for aug-charge                              
                                                                                
   Atomic configuration                                                         
   16 entries                                                                   
     n  l   j            E        occ.                                          
     1  0  0.50    -80748.5001   2.0000                                         
     2  0  0.50    -14244.7466   2.0000                                         
     2  1  1.50    -12310.9591   6.0000                                         
     3  0  0.50     -3362.1768   2.0000                                         
     3  1  1.50     -2801.5463   6.0000                                         
     3  2  2.50     -2203.8206  10.0000                                         
     4  0  0.50      -729.8168   2.0000                                         
     4  1  1.50      -546.0527   6.0000                                         
     4  2  2.50      -325.7302  10.0000                                         
     4  3  3.50       -81.1472  14.0000                                         
     5  0  0.50      -108.3201   2.0000                                         
     5  1  1.50       -59.7479   6.0000                                         
     5  2  2.50        -6.8783  10.0000                                         
     6  0  0.50        -5.7602   1.0000                                         
     6  1  1.50        -6.8029   0.0000                                         
     5  3  2.50        -1.3606   0.0000                                         
   Description                                                                  
     l       E           TYP  RCUT    TYP  RCUT                                 
     2     -6.8782861     23  2.500                                             
     2     -8.2388687     23  2.500                                             
     0     -5.7601759     23  2.500                                             
     0     -0.8493231     23  2.500                                             
     1     -2.7211652     23  2.500                                             
     1     27.2116520     23  2.500                                             
     3     -1.3605826     23  2.500                                             
  local pseudopotential read in
  partial core-charges read in
  partial kinetic energy density read in
  atomic valenz-charges read in
  non local Contribution for L=           2  read in
    real space projection operators read in
  non local Contribution for L=           2  read in
    real space projection operators read in
  non local Contribution for L=           0  read in
    real space projection operators read in
  non local Contribution for L=           0  read in
    real space projection operators read in
  non local Contribution for L=           1  read in
    real space projection operators read in
  non local Contribution for L=           1  read in
    real space projection operators read in
    PAW grid and wavefunctions read in
 
   number of l-projection  operators is LMAX  =           6
   number of lm-projection operators is LMMAX =          18
 
 POTCAR:    PAW_PBE Se 06Sep2000                  
   VRHFIN =Se: s2p4                                                             
   LEXCH  = PE                                                                  
   EATOM  =   257.1286 eV,   18.8984 Ry                                         
                                                                                
   TITEL  = PAW_PBE Se 06Sep2000                                                
   LULTRA =        F    use ultrasoft PP ?                                      
   IUNSCR =        1    unscreen: 0-lin 1-nonlin 2-no                           
   RPACOR =    1.900    partial core radius                                     
   POMASS =   78.960; ZVAL   =    6.000    mass and valenz                      
   RCORE  =    2.100    outmost cutoff radius                                   
   RWIGS  =    2.200; RWIGS  =    1.164    wigner-seitz radius (au A)           
   ENMAX  =  211.555; ENMIN  =  158.666 eV                                      
   ICORE  =        3    local potential                                         
   LCOR   =        T    correct aug charges                                     
   LPAW   =        T    paw PP                                                  
   EAUG   =  446.842                                                            
   DEXC   =    0.000                                                            
   RMAX   =    2.147    core radius for proj-oper                               
   RAUG   =    1.300    factor for augmentation sphere                          
   RDEP   =    2.177    radius for radial grids                                 
   RDEPT  =    1.928    core radius for aug-charge                              
                                                                                
   Atomic configuration                                                         
   10 entries                                                                   
     n  l   j            E        occ.                                          
     1  0  0.50    -12503.4787   2.0000                                         
     2  0  0.50     -1606.9547   2.0000                                         
     2  1  1.50     -1413.3140   6.0000                                         
     3  0  0.50      -213.4885   2.0000                                         
     3  1  1.50      -152.9538   6.0000                                         
     3  2  2.50       -53.1221  10.0000                                         
     4  0  0.50       -17.2865   2.0000                                         
     4  1  0.50        -6.5110   4.0000                                         
     4  2  2.50        -6.8029   0.0000                                         
     4  3  2.50        -6.8029   0.0000                                         
   Description                                                                  
     l       E           TYP  RCUT    TYP  RCUT                                 
     0    -17.2865377     23  2.100                                             
     0    -15.3094411     23  2.100                                             
     1     -6.5110275     23  2.100                                             
     1     -0.0695192     23  2.100                                             
     2     -6.8029130     23  2.100                                             
     3     -1.3605826      7  2.100                                             
  local pseudopotential read in
  partial core-charges read in
  partial kinetic energy density read in
  atomic valenz-charges read in
  non local Contribution for L=           0  read in
    real space projection operators read in
  non local Contribution for L=           0  read in
    real space projection operators read in
  non local Contribution for L=           1  read in
    real space projection operators read in
  non local Contribution for L=           1  read in
    real space projection operators read in
  non local Contribution for L=           2  read in
    real space projection operators read in
    PAW grid and wavefunctions read in
 
   number of l-projection  operators is LMAX  =           5
   number of lm-projection operators is LMMAX =          13
 
  PAW_PBE Au 04Oct2007                  :
 energy of atom  1       EATOM= -926.0867
 kinetic energy error for atom=    0.0034 (will be added to EATOM!!)
  PAW_PBE Se 06Sep2000                  :
 energy of atom  2       EATOM= -257.1286
 kinetic energy error for atom=    0.0007 (will be added to EATOM!!)
 
 
 POSCAR: Au Se                                   
  positions in direct lattice
  No initial velocities read in
 exchange correlation table for  LEXCH =        8
   RHO(1)=    0.500       N(1)  =     2000
   RHO(2)=  100.500       N(2)  =     4000
 


--------------------------------------------------------------------------------------------------------


 ion  position               nearest neighbor table
   1  0.500  0.608  0.500-   3 2.51   3 2.51   4 2.51   4 2.51
   2  0.000  0.108  0.500-   4 2.42   3 2.42
   3  0.000  0.781  0.444-   2 2.42   1 2.51   1 2.51
   4  0.000  0.435  0.556-   2 2.42   1 2.51   1 2.51
 
  LATTYP: Found a simple orthorhombic cell.
 ALAT       =     3.7401087710
 B/A-ratio  =     1.6833793322
 C/A-ratio  =     6.0340167681
  
  Lattice vectors:
  
 A1 = (   3.7401087710,   0.0000000000,   0.0000000000)
 A2 = (   0.0000000000,   6.2960218054,   0.0000000000)
 A3 = (   0.0000000000,   0.0000000000,  22.5678790387)


Analysis of symmetry for initial positions (statically):
=====================================================================
 Subroutine PRICEL returns:
 Original cell was already a primitive cell.
 

 Routine SETGRP: Setting up the symmetry group for a 
 simple orthorhombic supercell.


 Subroutine GETGRP returns: Found  4 space group operations
 (whereof  2 operations were pure point group operations)
 out of a pool of  8 trial point group operations.


The static configuration has the point symmetry C_1h.
 The point group associated with its full space group is C_2h.


Analysis of symmetry for dynamics (positions and initial velocities):
=====================================================================
 Subroutine PRICEL returns:
 Original cell was already a primitive cell.
 

 Routine SETGRP: Setting up the symmetry group for a 
 simple orthorhombic supercell.


 Subroutine GETGRP returns: Found  4 space group operations
 (whereof  2 operations were pure point group operations)
 out of a pool of  8 trial point group operations.


The dynamic configuration has the point symmetry C_1h.
 The point group associated with its full space group is C_2h.


 Subroutine INISYM returns: Found  4 space group operations
 (whereof  2 operations are pure point group operations),
 and found     1 'primitive' translations

 
 
 KPOINTS: A                                       

Automatic generation of k-mesh.
Space group operators:
 irot       det(A)        alpha          n_x          n_y          n_z        tau_x        tau_y        tau_z
    1     1.000000     0.000000     1.000000     0.000000     0.000000     0.000000     0.000000     0.000000
    2    -1.000000   180.000000     1.000000     0.000000     0.000000     0.000000     0.000000     0.000000
    3    -1.000000     0.000000     1.000000     0.000000     0.000000     0.000000     0.216572     0.000000
    4     1.000000   180.000000     1.000000     0.000000     0.000000     0.000000     0.216572     0.000000
 
 Subroutine IBZKPT returns following result:
 ===========================================
 
 Found     64 irreducible k-points:
 
 Following reciprocal coordinates:
            Coordinates               Weight
  0.031250  0.031250  0.000000      4.000000
  0.093750  0.031250  0.000000      4.000000
  0.156250  0.031250  0.000000      4.000000
  0.218750  0.031250  0.000000      4.000000
  0.281250  0.031250  0.000000      4.000000
  0.343750  0.031250  0.000000      4.000000
  0.406250  0.031250  0.000000      4.000000
  0.468750  0.031250  0.000000      4.000000
  0.031250  0.093750  0.000000      4.000000
  0.093750  0.093750  0.000000      4.000000
  0.156250  0.093750  0.000000      4.000000
  0.218750  0.093750  0.000000      4.000000
  0.281250  0.093750  0.000000      4.000000
  0.343750  0.093750  0.000000      4.000000
  0.406250  0.093750  0.000000      4.000000
  0.468750  0.093750  0.000000      4.000000
  0.031250  0.156250  0.000000      4.000000
  0.093750  0.156250  0.000000      4.000000
  0.156250  0.156250  0.000000      4.000000
  0.218750  0.156250  0.000000      4.000000
  0.281250  0.156250  0.000000      4.000000
  0.343750  0.156250  0.000000      4.000000
  0.406250  0.156250  0.000000      4.000000
  0.468750  0.156250  0.000000      4.000000
  0.031250  0.218750  0.000000      4.000000
  0.093750  0.218750  0.000000      4.000000
  0.156250  0.218750  0.000000      4.000000
  0.218750  0.218750  0.000000      4.000000
  0.281250  0.218750  0.000000      4.000000
  0.343750  0.218750  0.000000      4.000000
  0.406250  0.218750  0.000000      4.000000
  0.468750  0.218750  0.000000      4.000000
  0.031250  0.281250  0.000000      4.000000
  0.093750  0.281250  0.000000      4.000000
  0.156250  0.281250  0.000000      4.000000
  0.218750  0.281250  0.000000      4.000000
  0.281250  0.281250  0.000000      4.000000
  0.343750  0.281250  0.000000      4.000000
  0.406250  0.281250  0.000000      4.000000
  0.468750  0.281250  0.000000      4.000000
  0.031250  0.343750  0.000000      4.000000
  0.093750  0.343750  0.000000      4.000000
  0.156250  0.343750  0.000000      4.000000
  0.218750  0.343750  0.000000      4.000000
  0.281250  0.343750  0.000000      4.000000
  0.343750  0.343750  0.000000      4.000000
  0.406250  0.343750  0.000000      4.000000
  0.468750  0.343750  0.000000      4.000000
  0.031250  0.406250  0.000000      4.000000
  0.093750  0.406250  0.000000      4.000000
  0.156250  0.406250  0.000000      4.000000
  0.218750  0.406250  0.000000      4.000000
  0.281250  0.406250  0.000000      4.000000
  0.343750  0.406250  0.000000      4.000000
  0.406250  0.406250  0.000000      4.000000
  0.468750  0.406250  0.000000      4.000000
  0.031250  0.468750  0.000000      4.000000
  0.093750  0.468750  0.000000      4.000000
  0.156250  0.468750  0.000000      4.000000
  0.218750  0.468750  0.000000      4.000000
  0.281250  0.468750  0.000000      4.000000
  0.343750  0.468750  0.000000      4.000000
  0.406250  0.468750  0.000000      4.000000
  0.468750  0.468750  0.000000      4.000000
 
 Following cartesian coordinates:
            Coordinates               Weight
  0.008355  0.004963  0.000000      4.000000
  0.025066  0.004963  0.000000      4.000000
  0.041777  0.004963  0.000000      4.000000
  0.058488  0.004963  0.000000      4.000000
  0.075198  0.004963  0.000000      4.000000
  0.091909  0.004963  0.000000      4.000000
  0.108620  0.004963  0.000000      4.000000
  0.125331  0.004963  0.000000      4.000000
  0.008355  0.014890  0.000000      4.000000
  0.025066  0.014890  0.000000      4.000000
  0.041777  0.014890  0.000000      4.000000
  0.058488  0.014890  0.000000      4.000000
  0.075198  0.014890  0.000000      4.000000
  0.091909  0.014890  0.000000      4.000000
  0.108620  0.014890  0.000000      4.000000
  0.125331  0.014890  0.000000      4.000000
  0.008355  0.024817  0.000000      4.000000
  0.025066  0.024817  0.000000      4.000000
  0.041777  0.024817  0.000000      4.000000
  0.058488  0.024817  0.000000      4.000000
  0.075198  0.024817  0.000000      4.000000
  0.091909  0.024817  0.000000      4.000000
  0.108620  0.024817  0.000000      4.000000
  0.125331  0.024817  0.000000      4.000000
  0.008355  0.034744  0.000000      4.000000
  0.025066  0.034744  0.000000      4.000000
  0.041777  0.034744  0.000000      4.000000
  0.058488  0.034744  0.000000      4.000000
  0.075198  0.034744  0.000000      4.000000
  0.091909  0.034744  0.000000      4.000000
  0.108620  0.034744  0.000000      4.000000
  0.125331  0.034744  0.000000      4.000000
  0.008355  0.044671  0.000000      4.000000
  0.025066  0.044671  0.000000      4.000000
  0.041777  0.044671  0.000000      4.000000
  0.058488  0.044671  0.000000      4.000000
  0.075198  0.044671  0.000000      4.000000
  0.091909  0.044671  0.000000      4.000000
  0.108620  0.044671  0.000000      4.000000
  0.125331  0.044671  0.000000      4.000000
  0.008355  0.054598  0.000000      4.000000
  0.025066  0.054598  0.000000      4.000000
  0.041777  0.054598  0.000000      4.000000
  0.058488  0.054598  0.000000      4.000000
  0.075198  0.054598  0.000000      4.000000
  0.091909  0.054598  0.000000      4.000000
  0.108620  0.054598  0.000000      4.000000
  0.125331  0.054598  0.000000      4.000000
  0.008355  0.064525  0.000000      4.000000
  0.025066  0.064525  0.000000      4.000000
  0.041777  0.064525  0.000000      4.000000
  0.058488  0.064525  0.000000      4.000000
  0.075198  0.064525  0.000000      4.000000
  0.091909  0.064525  0.000000      4.000000
  0.108620  0.064525  0.000000      4.000000
  0.125331  0.064525  0.000000      4.000000
  0.008355  0.074452  0.000000      4.000000
  0.025066  0.074452  0.000000      4.000000
  0.041777  0.074452  0.000000      4.000000
  0.058488  0.074452  0.000000      4.000000
  0.075198  0.074452  0.000000      4.000000
  0.091909  0.074452  0.000000      4.000000
  0.108620  0.074452  0.000000      4.000000
  0.125331  0.074452  0.000000      4.000000
 


--------------------------------------------------------------------------------------------------------




 Dimension of arrays:
   k-points           NKPTS =     64   k-points in BZ     NKDIM =     64   number of bands    NBANDS=    128
   number of dos      NEDOS =    301   number of ions     NIONS =      4
   non local maximal  LDIM  =      6   non local SUM 2l+1 LMDIM =     18
   total plane-waves  NPLWV = 225792
   max r-space proj   IRMAX =      1   max aug-charges    IRDMAX=  26179
   dimension x,y,z NGX =    28 NGY =   48 NGZ =  168
   dimension x,y,z NGXF=    56 NGYF=   96 NGZF=  336
   support grid    NGXF=    56 NGYF=   96 NGZF=  336
   ions per type =               2   2
   NGX,Y,Z   is equivalent  to a cutoff of  12.45, 12.67, 12.38 a.u.
   NGXF,Y,Z  is equivalent  to a cutoff of  24.89, 25.35, 24.75 a.u.

 SYSTEM =  unknown system                          
 POSCAR =  Au Se                                   

 Startparameter for this run:
   NWRITE =      2    write-flag & timer
   PREC   = accura    normal or accurate (medium, high low for compatibility)
   ISTART =      0    job   : 0-new  1-cont  2-samecut
   ICHARG =      2    charge: 1-file 2-atom 10-const
   ISPIN  =      1    spin polarized calculation?
   LNONCOLLINEAR =      F non collinear calculations
   LSORBIT =      F    spin-orbit coupling
   INIWAV =      1    electr: 0-lowe 1-rand  2-diag
   LASPH  =      F    aspherical Exc in radial PAW
   METAGGA=      F    non-selfconsistent MetaGGA calc.

 Electronic Relaxation 1
   ENCUT  =  520.0 eV  38.22 Ry    6.18 a.u.   6.95 11.71 41.96*2*pi/ulx,y,z
   ENINI  =  520.0     initial cutoff
   ENAUG  =  446.8 eV  augmentation charge cutoff
   NELM   =     60;   NELMIN=  2; NELMDL= -5     # of ELM steps 
   EDIFF  = 0.1E-05   stopping-criterion for ELM
   LREAL  =      F    real-space projection
   NLSPLINE    = F    spline interpolate recip. space projectors
   LCOMPAT=      F    compatible to vasp.4.4
   GGA_COMPAT  = T    GGA compatible to vasp.4.4-vasp.4.6
   LMAXPAW     = -100 max onsite density
   LMAXMIX     =    2 max onsite mixed and CHGCAR
   VOSKOWN=      0    Vosko Wilk Nusair interpolation
   ROPT   =    0.00000   0.00000
 Ionic relaxation
   EDIFFG = -.2E-01   stopping-criterion for IOM
   NSW    =     50    number of steps for IOM
   NBLOCK =      1;   KBLOCK =     50    inner block; outer block 
   IBRION =      2    ionic relax: 0-MD 1-quasi-New 2-CG
   NFREE  =      1    steps in history (QN), initial steepest desc. (CG)
   ISIF   =      3    stress and relaxation
   IWAVPR =     11    prediction:  0-non 1-charg 2-wave 3-comb
   ISYM   =      2    0-nonsym 1-usesym 2-fastsym
   LCORR  =      T    Harris-Foulkes like correction to forces

   POTIM  = 0.1000    time-step for ionic-motion
   TEIN   =    0.0    initial temperature
   TEBEG  =    0.0;   TEEND  =   0.0 temperature during run
   SMASS  =  -3.00    Nose mass-parameter (am)
   estimated Nose-frequenzy (Omega)   =  0.10E-29 period in steps =****** mass=  -0.320E-27a.u.
   SCALEE = 1.0000    scale energy and forces
   NPACO  =    256;   APACO  = 16.0  distance and # of slots for P.C.
   PSTRESS=    0.0 pullay stress

  Mass of Ions in am
   POMASS = 196.97 78.96
  Ionic Valenz
   ZVAL   =  11.00  6.00
  Atomic Wigner-Seitz radii
   RWIGS  =  -1.00 -1.00
  virtual crystal weights 
   VCA    =   1.00  1.00
   NELECT =      34.0000    total number of electrons
   NUPDOWN=      -1.0000    fix difference up-down

 DOS related values:
   EMIN   =  10.00;   EMAX   =-10.00  energy-range for DOS
   EFERMI =   0.00
   ISMEAR =     0;   SIGMA  =   0.10  broadening in eV -4-tet -1-fermi 0-gaus

 Electronic relaxation 2 (details)
   IALGO  =     38    algorithm
   LDIAG  =      T    sub-space diagonalisation (order eigenvalues)
   LSUBROT=      F    optimize rotation matrix (better conditioning)
   TURBO    =      0    0=normal 1=particle mesh
   IRESTART =      0    0=no restart 2=restart with 2 vectors
   NREBOOT  =      0    no. of reboots
   NMIN     =      0    reboot dimension
   EREF     =   0.00    reference energy to select bands
   IMIX   =      4    mixing-type and parameters
     AMIX     =   0.40;   BMIX     =  1.00
     AMIX_MAG =   1.60;   BMIX_MAG =  1.00
     AMIN     =   0.10
     WC   =   100.;   INIMIX=   1;  MIXPRE=   1;  MAXMIX= -45

 Intra band minimization:
   WEIMIN = 0.0010     energy-eigenvalue tresh-hold
   EBREAK =  0.20E-08  absolut break condition
   DEPER  =   0.30     relativ break condition  

   TIME   =   0.40     timestep for ELM

  volume/ion in A,a.u.               =     132.86       896.56
  Fermi-wavevector in a.u.,A,eV,Ry     =   0.654768  1.237332  5.833104  0.428721
  Thomas-Fermi vector in A             =   1.725431
 
 Write flags
   LWAVE        =      F    write WAVECAR
   LDOWNSAMPLE  =      F    k-point downsampling of WAVECAR
   LCHARG       =      F    write CHGCAR
   LVTOT        =      F    write LOCPOT, total local potential
   LVHAR        =      F    write LOCPOT, Hartree potential only
   LELF         =      F    write electronic localiz. function (ELF)
   LORBIT       =      0    0 simple, 1 ext, 2 COOP (PROOUT), +10 PAW based schemes


 Dipole corrections
   LMONO  =      F    monopole corrections only (constant potential shift)
   LDIPOL =      F    correct potential (dipole corrections)
   IDIPOL =      0    1-x, 2-y, 3-z, 4-all directions 
   EPSILON=  1.0000000 bulk dielectric constant

 Exchange correlation treatment:
   GGA     =    --    GGA type
   LEXCH   =     8    internal setting for exchange type
   VOSKOWN=      0    Vosko Wilk Nusair interpolation
   LHFCALC =     F    Hartree Fock is set to
   LHFONE  =     F    Hartree Fock one center treatment
   AEXX    =    0.0000 exact exchange contribution

 Linear response parameters
   LEPSILON=     F    determine dielectric tensor
   LRPA    =     F    only Hartree local field effects (RPA)
   LNABLA  =     F    use nabla operator in PAW spheres
   LVEL    =     F    velocity operator in full k-point grid
   LINTERFAST=   F  fast interpolation
   KINTER  =     0    interpolate to denser k-point grid
   CSHIFT  =0.1000    complex shift for real part using Kramers Kronig
   OMEGAMAX=  -1.0    maximum frequency
   DEG_THRESHOLD= 0.2000000E-02 threshold for treating states as degnerate
   RTIME   =   -0.100 relaxation time in fs
  (WPLASMAI=    0.000 imaginary part of plasma frequency in eV, 0.658/RTIME)
   DFIELD  = 0.0000000 0.0000000 0.0000000 field for delta impulse in time
 
 Orbital magnetization related:
   ORBITALMAG=     F  switch on orbital magnetization
   LCHIMAG   =     F  perturbation theory with respect to B field
   DQ        =  0.001000  dq finite difference perturbation B field
   LLRAUG    =     F  two centre corrections for induced B field



--------------------------------------------------------------------------------------------------------


 conjugate gradient relaxation of ions
 charge density and potential will be updated during run
 non-spin polarized calculation
 Variant of blocked Davidson
 Davidson routine will perform the subspace rotation
 perform sub-space diagonalisation
    after iterative eigenvector-optimisation
 modified Broyden-mixing scheme, WC =      100.0
 initial mixing is a Kerker type mixing with AMIX =  0.4000 and BMIX =      1.0000
 Hartree-type preconditioning will be used
 using additional bands          111
 reciprocal scheme for non local part
 use partial core corrections
 calculate Harris-corrections to forces 
   (improved forces if not selfconsistent)
 use gradient corrections 
 use of overlap-Matrix (Vanderbilt PP)
 Gauss-broadening in eV      SIGMA  =   0.10


--------------------------------------------------------------------------------------------------------


  energy-cutoff  :      520.00
  volume of cell :      531.42
      direct lattice vectors                 reciprocal lattice vectors
     3.740108771  0.000000000  0.000000000     0.267371903  0.000000000  0.000000000
     0.000000000  6.296021805  0.000000000     0.000000000  0.158830454  0.000000000
     0.000000000  0.000000000 22.567879039     0.000000000  0.000000000  0.044310766

  length of vectors
     3.740108771  6.296021805 22.567879039     0.267371903  0.158830454  0.044310766


 
 k-points in units of 2pi/SCALE and weight: A                                       
   0.00835537  0.00496345  0.00000000       0.016
   0.02506612  0.00496345  0.00000000       0.016
   0.04177686  0.00496345  0.00000000       0.016
   0.05848760  0.00496345  0.00000000       0.016
   0.07519835  0.00496345  0.00000000       0.016
   0.09190909  0.00496345  0.00000000       0.016
   0.10861984  0.00496345  0.00000000       0.016
   0.12533058  0.00496345  0.00000000       0.016
   0.00835537  0.01489036  0.00000000       0.016
   0.02506612  0.01489036  0.00000000       0.016
   0.04177686  0.01489036  0.00000000       0.016
   0.05848760  0.01489036  0.00000000       0.016
   0.07519835  0.01489036  0.00000000       0.016
   0.09190909  0.01489036  0.00000000       0.016
   0.10861984  0.01489036  0.00000000       0.016
   0.12533058  0.01489036  0.00000000       0.016
   0.00835537  0.02481726  0.00000000       0.016
   0.02506612  0.02481726  0.00000000       0.016
   0.04177686  0.02481726  0.00000000       0.016
   0.05848760  0.02481726  0.00000000       0.016
   0.07519835  0.02481726  0.00000000       0.016
   0.09190909  0.02481726  0.00000000       0.016
   0.10861984  0.02481726  0.00000000       0.016
   0.12533058  0.02481726  0.00000000       0.016
   0.00835537  0.03474416  0.00000000       0.016
   0.02506612  0.03474416  0.00000000       0.016
   0.04177686  0.03474416  0.00000000       0.016
   0.05848760  0.03474416  0.00000000       0.016
   0.07519835  0.03474416  0.00000000       0.016
   0.09190909  0.03474416  0.00000000       0.016
   0.10861984  0.03474416  0.00000000       0.016
   0.12533058  0.03474416  0.00000000       0.016
   0.00835537  0.04467107  0.00000000       0.016
   0.02506612  0.04467107  0.00000000       0.016
   0.04177686  0.04467107  0.00000000       0.016
   0.05848760  0.04467107  0.00000000       0.016
   0.07519835  0.04467107  0.00000000       0.016
   0.09190909  0.04467107  0.00000000       0.016
   0.10861984  0.04467107  0.00000000       0.016
   0.12533058  0.04467107  0.00000000       0.016
   0.00835537  0.05459797  0.00000000       0.016
   0.02506612  0.05459797  0.00000000       0.016
   0.04177686  0.05459797  0.00000000       0.016
   0.05848760  0.05459797  0.00000000       0.016
   0.07519835  0.05459797  0.00000000       0.016
   0.09190909  0.05459797  0.00000000       0.016
   0.10861984  0.05459797  0.00000000       0.016
   0.12533058  0.05459797  0.00000000       0.016
   0.00835537  0.06452487  0.00000000       0.016
   0.02506612  0.06452487  0.00000000       0.016
   0.04177686  0.06452487  0.00000000       0.016
   0.05848760  0.06452487  0.00000000       0.016
   0.07519835  0.06452487  0.00000000       0.016
   0.09190909  0.06452487  0.00000000       0.016
   0.10861984  0.06452487  0.00000000       0.016
   0.12533058  0.06452487  0.00000000       0.016
   0.00835537  0.07445178  0.00000000       0.016
   0.02506612  0.07445178  0.00000000       0.016
   0.04177686  0.07445178  0.00000000       0.016
   0.05848760  0.07445178  0.00000000       0.016
   0.07519835  0.07445178  0.00000000       0.016
   0.09190909  0.07445178  0.00000000       0.016
   0.10861984  0.07445178  0.00000000       0.016
   0.12533058  0.07445178  0.00000000       0.016
 
 k-points in reciprocal lattice and weights: A                                       
   0.03125000  0.03125000  0.00000000       0.016
   0.09375000  0.03125000  0.00000000       0.016
   0.15625000  0.03125000  0.00000000       0.016
   0.21875000  0.03125000  0.00000000       0.016
   0.28125000  0.03125000  0.00000000       0.016
   0.34375000  0.03125000  0.00000000       0.016
   0.40625000  0.03125000  0.00000000       0.016
   0.46875000  0.03125000  0.00000000       0.016
   0.03125000  0.09375000  0.00000000       0.016
   0.09375000  0.09375000  0.00000000       0.016
   0.15625000  0.09375000  0.00000000       0.016
   0.21875000  0.09375000  0.00000000       0.016
   0.28125000  0.09375000  0.00000000       0.016
   0.34375000  0.09375000  0.00000000       0.016
   0.40625000  0.09375000  0.00000000       0.016
   0.46875000  0.09375000  0.00000000       0.016
   0.03125000  0.15625000  0.00000000       0.016
   0.09375000  0.15625000  0.00000000       0.016
   0.15625000  0.15625000  0.00000000       0.016
   0.21875000  0.15625000  0.00000000       0.016
   0.28125000  0.15625000  0.00000000       0.016
   0.34375000  0.15625000  0.00000000       0.016
   0.40625000  0.15625000  0.00000000       0.016
   0.46875000  0.15625000  0.00000000       0.016
   0.03125000  0.21875000  0.00000000       0.016
   0.09375000  0.21875000  0.00000000       0.016
   0.15625000  0.21875000  0.00000000       0.016
   0.21875000  0.21875000  0.00000000       0.016
   0.28125000  0.21875000  0.00000000       0.016
   0.34375000  0.21875000  0.00000000       0.016
   0.40625000  0.21875000  0.00000000       0.016
   0.46875000  0.21875000  0.00000000       0.016
   0.03125000  0.28125000  0.00000000       0.016
   0.09375000  0.28125000  0.00000000       0.016
   0.15625000  0.28125000  0.00000000       0.016
   0.21875000  0.28125000  0.00000000       0.016
   0.28125000  0.28125000  0.00000000       0.016
   0.34375000  0.28125000  0.00000000       0.016
   0.40625000  0.28125000  0.00000000       0.016
   0.46875000  0.28125000  0.00000000       0.016
   0.03125000  0.34375000  0.00000000       0.016
   0.09375000  0.34375000  0.00000000       0.016
   0.15625000  0.34375000  0.00000000       0.016
   0.21875000  0.34375000  0.00000000       0.016
   0.28125000  0.34375000  0.00000000       0.016
   0.34375000  0.34375000  0.00000000       0.016
   0.40625000  0.34375000  0.00000000       0.016
   0.46875000  0.34375000  0.00000000       0.016
   0.03125000  0.40625000  0.00000000       0.016
   0.09375000  0.40625000  0.00000000       0.016
   0.15625000  0.40625000  0.00000000       0.016
   0.21875000  0.40625000  0.00000000       0.016
   0.28125000  0.40625000  0.00000000       0.016
   0.34375000  0.40625000  0.00000000       0.016
   0.40625000  0.40625000  0.00000000       0.016
   0.46875000  0.40625000  0.00000000       0.016
   0.03125000  0.46875000  0.00000000       0.016
   0.09375000  0.46875000  0.00000000       0.016
   0.15625000  0.46875000  0.00000000       0.016
   0.21875000  0.46875000  0.00000000       0.016
   0.28125000  0.46875000  0.00000000       0.016
   0.34375000  0.46875000  0.00000000       0.016
   0.40625000  0.46875000  0.00000000       0.016
   0.46875000  0.46875000  0.00000000       0.016
 
 position of ions in fractional coordinates (direct lattice) 
   0.50000000  0.60828583  0.49999995
   0.00000000  0.10828593  0.50000007
   0.00000000  0.78144309  0.44353508
   0.00000000  0.43512885  0.55646490
 
 position of ions in cartesian coordinates  (Angst):
   1.87005439  3.82978083 11.28393842
   0.00000000  0.68177059 11.28394108
   0.00000000  4.91998273 10.00964611
   0.00000000  2.73958072 12.55823247
 


--------------------------------------------------------------------------------------------------------


 k-point  1 :   0.0312 0.0312 0.0000  plane waves:   14270
 k-point  2 :   0.0937 0.0312 0.0000  plane waves:   14279
 k-point  3 :   0.1562 0.0312 0.0000  plane waves:   14308
 k-point  4 :   0.2188 0.0312 0.0000  plane waves:   14330
 k-point  5 :   0.2812 0.0312 0.0000  plane waves:   14334
 k-point  6 :   0.3438 0.0312 0.0000  plane waves:   14317
 k-point  7 :   0.4062 0.0312 0.0000  plane waves:   14312
 k-point  8 :   0.4688 0.0312 0.0000  plane waves:   14304
 k-point  9 :   0.0312 0.0937 0.0000  plane waves:   14265
 k-point 10 :   0.0937 0.0937 0.0000  plane waves:   14277
 k-point 11 :   0.1562 0.0937 0.0000  plane waves:   14313
 k-point 12 :   0.2188 0.0937 0.0000  plane waves:   14338
 k-point 13 :   0.2812 0.0937 0.0000  plane waves:   14323
 k-point 14 :   0.3438 0.0937 0.0000  plane waves:   14332
 k-point 15 :   0.4062 0.0937 0.0000  plane waves:   14332
 k-point 16 :   0.4688 0.0937 0.0000  plane waves:   14334
 k-point 17 :   0.0312 0.1562 0.0000  plane waves:   14251
 k-point 18 :   0.0937 0.1562 0.0000  plane waves:   14281
 k-point 19 :   0.1562 0.1562 0.0000  plane waves:   14305
 k-point 20 :   0.2188 0.1562 0.0000  plane waves:   14323
 k-point 21 :   0.2812 0.1562 0.0000  plane waves:   14328
 k-point 22 :   0.3438 0.1562 0.0000  plane waves:   14333
 k-point 23 :   0.4062 0.1562 0.0000  plane waves:   14331
 k-point 24 :   0.4688 0.1562 0.0000  plane waves:   14340
 k-point 25 :   0.0312 0.2187 0.0000  plane waves:   14246
 k-point 26 :   0.0937 0.2187 0.0000  plane waves:   14275
 k-point 27 :   0.1562 0.2187 0.0000  plane waves:   14305
 k-point 28 :   0.2188 0.2187 0.0000  plane waves:   14302
 k-point 29 :   0.2812 0.2187 0.0000  plane waves:   14304
 k-point 30 :   0.3438 0.2187 0.0000  plane waves:   14334
 k-point 31 :   0.4062 0.2187 0.0000  plane waves:   14341
 k-point 32 :   0.4688 0.2187 0.0000  plane waves:   14366
 k-point 33 :   0.0312 0.2812 0.0000  plane waves:   14241
 k-point 34 :   0.0937 0.2812 0.0000  plane waves:   14262
 k-point 35 :   0.1562 0.2812 0.0000  plane waves:   14280
 k-point 36 :   0.2188 0.2812 0.0000  plane waves:   14311
 k-point 37 :   0.2812 0.2812 0.0000  plane waves:   14310
 k-point 38 :   0.3438 0.2812 0.0000  plane waves:   14331
 k-point 39 :   0.4062 0.2812 0.0000  plane waves:   14352
 k-point 40 :   0.4688 0.2812 0.0000  plane waves:   14349
 k-point 41 :   0.0312 0.3437 0.0000  plane waves:   14242
 k-point 42 :   0.0937 0.3437 0.0000  plane waves:   14255
 k-point 43 :   0.1562 0.3437 0.0000  plane waves:   14265
 k-point 44 :   0.2188 0.3437 0.0000  plane waves:   14298
 k-point 45 :   0.2812 0.3437 0.0000  plane waves:   14312
 k-point 46 :   0.3438 0.3437 0.0000  plane waves:   14343
 k-point 47 :   0.4062 0.3437 0.0000  plane waves:   14358
 k-point 48 :   0.4688 0.3437 0.0000  plane waves:   14362
 k-point 49 :   0.0312 0.4062 0.0000  plane waves:   14229
 k-point 50 :   0.0937 0.4062 0.0000  plane waves:   14265
 k-point 51 :   0.1562 0.4062 0.0000  plane waves:   14271
 k-point 52 :   0.2188 0.4062 0.0000  plane waves:   14311
 k-point 53 :   0.2812 0.4062 0.0000  plane waves:   14323
 k-point 54 :   0.3438 0.4062 0.0000  plane waves:   14332
 k-point 55 :   0.4062 0.4062 0.0000  plane waves:   14342
 k-point 56 :   0.4688 0.4062 0.0000  plane waves:   14360
 k-point 57 :   0.0312 0.4687 0.0000  plane waves:   14264
 k-point 58 :   0.0937 0.4687 0.0000  plane waves:   14265
 k-point 59 :   0.1562 0.4687 0.0000  plane waves:   14272
 k-point 60 :   0.2188 0.4687 0.0000  plane waves:   14293
 k-point 61 :   0.2812 0.4687 0.0000  plane waves:   14341
 k-point 62 :   0.3438 0.4687 0.0000  plane waves:   14332
 k-point 63 :   0.4062 0.4687 0.0000  plane waves:   14336
 k-point 64 :   0.4688 0.4687 0.0000  plane waves:   14326

 maximum and minimum number of plane-waves per node :      2077     2012

 maximum number of plane-waves:     14366
 maximum index in each direction: 
   IXMAX=    6   IYMAX=   11   IZMAX=   41
   IXMIN=   -7   IYMIN=  -12   IZMIN=  -41


 parallel 3D FFT for wavefunctions:
    minimum data exchange during FFTs selected (reduces bandwidth)
 parallel 3D FFT for charge:
    minimum data exchange during FFTs selected (reduces bandwidth)


 total amount of memory used by VASP MPI-rank0   144535. kBytes
=======================================================================

   base      :      30000. kBytes
   nonl-proj :      38175. kBytes
   fftplans  :       3134. kBytes
   grid      :       4923. kBytes
   one-center:         15. kBytes
   wavefun   :      68288. kBytes
 
     INWAV:  cpu time    0.0000: real time    0.0001
 Broyden mixing: mesh for mixing (old mesh)
   NGX = 13   NGY = 23   NGZ = 83
  (NGX  = 56   NGY  = 96   NGZ  =336)
  gives a total of  24817 points

 initial charge density was supplied:
 charge density of overlapping atoms calculated
 number of electron      34.0000000 magnetization 
 keeping initial charge density in first step


--------------------------------------------------------------------------------------------------------


 Maximum index for augmentation-charges         1043 (set IRDMAX)


--------------------------------------------------------------------------------------------------------


 First call to EWALD:  gamma=   0.219
 Maximum number of real-space cells 5x 3x 1
 Maximum number of reciprocal cells 2x 2x 7

    FEWALD:  cpu time    0.0020: real time    0.0016


--------------------------------------- Iteration      1(   1)  ---------------------------------------


    POTLOK:  cpu time    0.0460: real time    0.0479
    SETDIJ:  cpu time    0.0040: real time    0.0034
     EDDAV:  cpu time   16.2875: real time   16.3062
       DOS:  cpu time    0.0050: real time    0.0059
    --------------------------------------------
      LOOP:  cpu time   16.3425: real time   16.3634

 eigenvalue-minimisations  : 16384
 total energy-change (2. order) : 0.1930816E+03  (-0.8522858E+03)
 number of electron      34.0000000 magnetization 
 augmentation part       34.0000000 magnetization 

 Free energy of the ion-electron system (eV)
  ---------------------------------------------------
  alpha Z        PSCENC =        20.98643715
  Ewald energy   TEWEN  =      4312.79518122
  -Hartree energ DENC   =     -6559.86380533
  -exchange      EXHF   =         0.00000000
  -V(xc)+E(xc)   XCENC  =        28.58587085
  PAW double counting   =      2168.79592907    -2095.07358977
  entropy T*S    EENTRO =        -0.01686108
  eigenvalues    EBANDS =       -49.54991466
  atomic energy  EATOM  =      2366.42236118
  Solvation  Ediel_sol  =         0.00000000
  ---------------------------------------------------
  free energy    TOTEN  =       193.08160862 eV

  energy without entropy =      193.09846970  energy(sigma->0) =      193.09003916


--------------------------------------------------------------------------------------------------------




--------------------------------------- Iteration      1(   2)  ---------------------------------------


     EDDAV:  cpu time   18.3862: real time   18.4187
       DOS:  cpu time    0.0030: real time    0.0029
    --------------------------------------------
      LOOP:  cpu time   18.3892: real time   18.4216

 eigenvalue-minimisations  : 19456
 total energy-change (2. order) :-0.1981418E+03  (-0.1801283E+03)
 number of electron      34.0000000 magnetization 
 augmentation part       34.0000000 magnetization 

 Free energy of the ion-electron system (eV)
  ---------------------------------------------------
  alpha Z        PSCENC =        20.98643715
  Ewald energy   TEWEN  =      4312.79518122
  -Hartree energ DENC   =     -6559.86380533
  -exchange      EXHF   =         0.00000000
  -V(xc)+E(xc)   XCENC  =        28.58587085
  PAW double counting   =      2168.79592907    -2095.07358977
  entropy T*S    EENTRO =        -0.00000000
  eigenvalues    EBANDS =      -247.70860573
  atomic energy  EATOM  =      2366.42236118
  Solvation  Ediel_sol  =         0.00000000
  ---------------------------------------------------
  free energy    TOTEN  =        -5.06022138 eV

  energy without entropy =       -5.06022138  energy(sigma->0) =       -5.06022138


--------------------------------------------------------------------------------------------------------




--------------------------------------- Iteration      1(   3)  ---------------------------------------


     EDDAV:  cpu time   18.5862: real time   18.6159
       DOS:  cpu time    0.0030: real time    0.0030
    --------------------------------------------
      LOOP:  cpu time   18.5892: real time   18.6189

 eigenvalue-minimisations  : 19608
 total energy-change (2. order) :-0.9912921E+01  (-0.9722796E+01)
 number of electron      34.0000000 magnetization 
 augmentation part       34.0000000 magnetization 

 Free energy of the ion-electron system (eV)
  ---------------------------------------------------
  alpha Z        PSCENC =        20.98643715
  Ewald energy   TEWEN  =      4312.79518122
  -Hartree energ DENC   =     -6559.86380533
  -exchange      EXHF   =         0.00000000
  -V(xc)+E(xc)   XCENC  =        28.58587085
  PAW double counting   =      2168.79592907    -2095.07358977
  entropy T*S    EENTRO =        -0.00000000
  eigenvalues    EBANDS =      -257.62152629
  atomic energy  EATOM  =      2366.42236118
  Solvation  Ediel_sol  =         0.00000000
  ---------------------------------------------------
  free energy    TOTEN  =       -14.97314193 eV

  energy without entropy =      -14.97314193  energy(sigma->0) =      -14.97314193


--------------------------------------------------------------------------------------------------------




--------------------------------------- Iteration      1(   4)  ---------------------------------------


     EDDAV:  cpu time   18.1242: real time   18.1508
       DOS:  cpu time    0.0030: real time    0.0030
    --------------------------------------------
      LOOP:  cpu time   18.1272: real time   18.1538

 eigenvalue-minimisations  : 18904
 total energy-change (2. order) :-0.1135032E+00  (-0.1134663E+00)
 number of electron      34.0000000 magnetization 
 augmentation part       34.0000000 magnetization 

 Free energy of the ion-electron system (eV)
  ---------------------------------------------------
  alpha Z        PSCENC =        20.98643715
  Ewald energy   TEWEN  =      4312.79518122
  -Hartree energ DENC   =     -6559.86380533
  -exchange      EXHF   =         0.00000000
  -V(xc)+E(xc)   XCENC  =        28.58587085
  PAW double counting   =      2168.79592907    -2095.07358977
  entropy T*S    EENTRO =        -0.00000000
  eigenvalues    EBANDS =      -257.73502954
  atomic energy  EATOM  =      2366.42236118
  Solvation  Ediel_sol  =         0.00000000
  ---------------------------------------------------
  free energy    TOTEN  =       -15.08664518 eV

  energy without entropy =      -15.08664518  energy(sigma->0) =      -15.08664518


--------------------------------------------------------------------------------------------------------




--------------------------------------- Iteration      1(   5)  ---------------------------------------


     EDDAV:  cpu time   18.3502: real time   18.3797
       DOS:  cpu time    0.0040: real time    0.0031
    CHARGE:  cpu time    0.1950: real time    0.1952
    MIXING:  cpu time    0.0020: real time    0.0017
    --------------------------------------------
      LOOP:  cpu time   18.5512: real time   18.5797

 eigenvalue-minimisations  : 19264
 total energy-change (2. order) :-0.2306832E-02  (-0.2306752E-02)
 number of electron      34.0000001 magnetization 
 augmentation part        5.1287754 magnetization 

 Broyden mixing:
  rms(total) = 0.11506E+01    rms(broyden)= 0.11505E+01
  rms(prec ) = 0.11905E+01
  weight for this iteration     100.00

 Free energy of the ion-electron system (eV)
  ---------------------------------------------------
  alpha Z        PSCENC =        20.98643715
  Ewald energy   TEWEN  =      4312.79518122
  -Hartree energ DENC   =     -6559.86380533
  -exchange      EXHF   =         0.00000000
  -V(xc)+E(xc)   XCENC  =        28.58587085
  PAW double counting   =      2168.79592907    -2095.07358977
  entropy T*S    EENTRO =        -0.00000000
  eigenvalues    EBANDS =      -257.73733637
  atomic energy  EATOM  =      2366.42236118
  Solvation  Ediel_sol  =         0.00000000
  ---------------------------------------------------
  free energy    TOTEN  =       -15.08895201 eV

  energy without entropy =      -15.08895201  energy(sigma->0) =      -15.08895201


--------------------------------------------------------------------------------------------------------




--------------------------------------- Iteration      1(   6)  ---------------------------------------


    POTLOK:  cpu time    0.0420: real time    0.0441
    SETDIJ:  cpu time    0.0030: real time    0.0031
     EDDAV:  cpu time   17.5783: real time   17.5986
       DOS:  cpu time    0.0040: real time    0.0031
    CHARGE:  cpu time    0.1950: real time    0.1958
    MIXING:  cpu time    0.0020: real time    0.0015
    --------------------------------------------
      LOOP:  cpu time   17.8243: real time   17.8463

 eigenvalue-minimisations  : 18072
 total energy-change (2. order) : 0.1120694E+01  (-0.1489059E+00)
 number of electron      34.0000001 magnetization 
 augmentation part        5.6983490 magnetization 

 Broyden mixing:
  rms(total) = 0.82962E+00    rms(broyden)= 0.82962E+00
  rms(prec ) = 0.83281E+00
  weight for this iteration     100.00

 eigenvalues of (default mixing * dielectric matrix)
  average eigenvalue GAMMA=   1.0028
  1.0028

 Free energy of the ion-electron system (eV)
  ---------------------------------------------------
  alpha Z        PSCENC =        20.98643715
  Ewald energy   TEWEN  =      4312.79518122
  -Hartree energ DENC   =     -6531.14213970
  -exchange      EXHF   =         0.00000000
  -V(xc)+E(xc)   XCENC  =        27.89804283
  PAW double counting   =      2347.58651231    -2276.76394062
  entropy T*S    EENTRO =        -0.00000000
  eigenvalues    EBANDS =      -281.75071201
  atomic energy  EATOM  =      2366.42236118
  Solvation  Ediel_sol  =         0.00000000
  ---------------------------------------------------
  free energy    TOTEN  =       -13.96825765 eV

  energy without entropy =      -13.96825765  energy(sigma->0) =      -13.96825765


--------------------------------------------------------------------------------------------------------




--------------------------------------- Iteration      1(   7)  ---------------------------------------


    POTLOK:  cpu time    0.0460: real time    0.0500
    SETDIJ:  cpu time    0.0030: real time    0.0031
     EDDAV:  cpu time   17.5133: real time   17.5464
       DOS:  cpu time    0.0030: real time    0.0032
    CHARGE:  cpu time    0.1970: real time    0.1963
    MIXING:  cpu time    0.0010: real time    0.0014
    --------------------------------------------
      LOOP:  cpu time   17.7633: real time   17.8003

 eigenvalue-minimisations  : 18000
 total energy-change (2. order) : 0.7279060E-01  (-0.2536207E-01)
 number of electron      34.0000001 magnetization 
 augmentation part        5.6470757 magnetization 

 Broyden mixing:
  rms(total) = 0.43014E+00    rms(broyden)= 0.43014E+00
  rms(prec ) = 0.43146E+00
  weight for this iteration     100.00

 eigenvalues of (default mixing * dielectric matrix)
  average eigenvalue GAMMA=   1.5128
  0.8346  2.1909

 Free energy of the ion-electron system (eV)
  ---------------------------------------------------
  alpha Z        PSCENC =        20.98643715
  Ewald energy   TEWEN  =      4312.79518122
  -Hartree energ DENC   =     -6534.39867096
  -exchange      EXHF   =         0.00000000
  -V(xc)+E(xc)   XCENC  =        27.96589693
  PAW double counting   =      2505.53799713    -2436.16454504
  entropy T*S    EENTRO =        -0.00000000
  eigenvalues    EBANDS =      -277.04012465
  atomic energy  EATOM  =      2366.42236118
  Solvation  Ediel_sol  =         0.00000000
  ---------------------------------------------------
  free energy    TOTEN  =       -13.89546705 eV

  energy without entropy =      -13.89546705  energy(sigma->0) =      -13.89546705


--------------------------------------------------------------------------------------------------------




--------------------------------------- Iteration      1(   8)  ---------------------------------------


    POTLOK:  cpu time    0.0440: real time    0.0470
    SETDIJ:  cpu time    0.0040: real time    0.0031
     EDDAV:  cpu time   17.4294: real time   17.4608
       DOS:  cpu time    0.0030: real time    0.0033
    CHARGE:  cpu time    0.1960: real time    0.1960
    MIXING:  cpu time    0.0020: real time    0.0015
    --------------------------------------------
      LOOP:  cpu time   17.6783: real time   17.7117

 eigenvalue-minimisations  : 17872
 total energy-change (2. order) : 0.1656674E-01  (-0.2621823E-02)
 number of electron      34.0000001 magnetization 
 augmentation part        5.6408884 magnetization 

 Broyden mixing:
  rms(total) = 0.54317E-01    rms(broyden)= 0.54317E-01
  rms(prec ) = 0.55085E-01
  weight for this iteration     100.00

 eigenvalues of (default mixing * dielectric matrix)
  average eigenvalue GAMMA=   1.4164
  2.4169  0.9417  0.8906

 Free energy of the ion-electron system (eV)
  ---------------------------------------------------
  alpha Z        PSCENC =        20.98643715
  Ewald energy   TEWEN  =      4312.79518122
  -Hartree energ DENC   =     -6534.26320648
  -exchange      EXHF   =         0.00000000
  -V(xc)+E(xc)   XCENC  =        28.00769790
  PAW double counting   =      2711.64738107    -2644.18479658
  entropy T*S    EENTRO =        -0.00000000
  eigenvalues    EBANDS =      -275.28995575
  atomic energy  EATOM  =      2366.42236118
  Solvation  Ediel_sol  =         0.00000000
  ---------------------------------------------------
  free energy    TOTEN  =       -13.87890031 eV

  energy without entropy =      -13.87890031  energy(sigma->0) =      -13.87890031


--------------------------------------------------------------------------------------------------------




--------------------------------------- Iteration      1(   9)  ---------------------------------------


    POTLOK:  cpu time    0.0400: real time    0.0426
    SETDIJ:  cpu time    0.0040: real time    0.0031
     EDDAV:  cpu time   18.1052: real time   18.1260
       DOS:  cpu time    0.0040: real time    0.0033
    CHARGE:  cpu time    0.1950: real time    0.1962
    MIXING:  cpu time    0.0020: real time    0.0015
    --------------------------------------------
      LOOP:  cpu time   18.3502: real time   18.3727

 eigenvalue-minimisations  : 18784
 total energy-change (2. order) : 0.7884186E-03  (-0.2158986E-03)
 number of electron      34.0000001 magnetization 
 augmentation part        5.6521472 magnetization 

 Broyden mixing:
  rms(total) = 0.19071E-01    rms(broyden)= 0.19070E-01
  rms(prec ) = 0.19358E-01
  weight for this iteration     100.00

 eigenvalues of (default mixing * dielectric matrix)
  average eigenvalue GAMMA=   1.5775
  0.8922  0.8922  2.0020  2.5235

 Free energy of the ion-electron system (eV)
  ---------------------------------------------------
  alpha Z        PSCENC =        20.98643715
  Ewald energy   TEWEN  =      4312.79518122
  -Hartree energ DENC   =     -6534.06604439
  -exchange      EXHF   =         0.00000000
  -V(xc)+E(xc)   XCENC  =        28.01039660
  PAW double counting   =      2727.95690504    -2660.72079844
  entropy T*S    EENTRO =        -0.00000000
  eigenvalues    EBANDS =      -275.26255024
  atomic energy  EATOM  =      2366.42236118
  Solvation  Ediel_sol  =         0.00000000
  ---------------------------------------------------
  free energy    TOTEN  =       -13.87811189 eV

  energy without entropy =      -13.87811189  energy(sigma->0) =      -13.87811189


--------------------------------------------------------------------------------------------------------




--------------------------------------- Iteration      1(  10)  ---------------------------------------


    POTLOK:  cpu time    0.0410: real time    0.0430
    SETDIJ:  cpu time    0.0040: real time    0.0031
     EDDAV:  cpu time   18.1322: real time   18.1537
       DOS:  cpu time    0.0040: real time    0.0032
    CHARGE:  cpu time    0.1960: real time    0.1962
    MIXING:  cpu time    0.0020: real time    0.0015
    --------------------------------------------
      LOOP:  cpu time   18.3792: real time   18.4008

 eigenvalue-minimisations  : 18864
 total energy-change (2. order) : 0.5437122E-04  (-0.4460461E-04)
 number of electron      34.0000001 magnetization 
 augmentation part        5.6539809 magnetization 

 Broyden mixing:
  rms(total) = 0.45452E-02    rms(broyden)= 0.45451E-02
  rms(prec ) = 0.49963E-02
  weight for this iteration     100.00

 eigenvalues of (default mixing * dielectric matrix)
  average eigenvalue GAMMA=   1.5054
  2.4658  2.3620  0.9295  0.9295  0.8401

 Free energy of the ion-electron system (eV)
  ---------------------------------------------------
  alpha Z        PSCENC =        20.98643715
  Ewald energy   TEWEN  =      4312.79518122
  -Hartree energ DENC   =     -6534.71451165
  -exchange      EXHF   =         0.00000000
  -V(xc)+E(xc)   XCENC  =        28.02519140
  PAW double counting   =      2717.47794310    -2650.24337714
  entropy T*S    EENTRO =        -0.00000000
  eigenvalues    EBANDS =      -274.62728277
  atomic energy  EATOM  =      2366.42236118
  Solvation  Ediel_sol  =         0.00000000
  ---------------------------------------------------
  free energy    TOTEN  =       -13.87805752 eV

  energy without entropy =      -13.87805752  energy(sigma->0) =      -13.87805752


--------------------------------------------------------------------------------------------------------




--------------------------------------- Iteration      1(  11)  ---------------------------------------


    POTLOK:  cpu time    0.0410: real time    0.0450
    SETDIJ:  cpu time    0.0040: real time    0.0031
     EDDAV:  cpu time   18.3272: real time   18.3574
       DOS:  cpu time    0.0030: real time    0.0032
    CHARGE:  cpu time    0.1970: real time    0.1972
    MIXING:  cpu time    0.0020: real time    0.0015
    --------------------------------------------
      LOOP:  cpu time   18.5742: real time   18.6075

 eigenvalue-minimisations  : 19096
 total energy-change (2. order) : 0.2195683E-04  (-0.3395918E-05)
 number of electron      34.0000001 magnetization 
 augmentation part        5.6526929 magnetization 

 Broyden mixing:
  rms(total) = 0.19530E-02    rms(broyden)= 0.19530E-02
  rms(prec ) = 0.23703E-02
  weight for this iteration     100.00

 eigenvalues of (default mixing * dielectric matrix)
  average eigenvalue GAMMA=   1.5627
  2.5208  2.5208  1.4418  0.8801  0.9750  1.0376

 Free energy of the ion-electron system (eV)
  ---------------------------------------------------
  alpha Z        PSCENC =        20.98643715
  Ewald energy   TEWEN  =      4312.79518122
  -Hartree energ DENC   =     -6535.00231477
  -exchange      EXHF   =         0.00000000
  -V(xc)+E(xc)   XCENC  =        28.02942705
  PAW double counting   =      2714.41392597    -2647.16797890
  entropy T*S    EENTRO =        -0.00000000
  eigenvalues    EBANDS =      -274.35507446
  atomic energy  EATOM  =      2366.42236118
  Solvation  Ediel_sol  =         0.00000000
  ---------------------------------------------------
  free energy    TOTEN  =       -13.87803556 eV

  energy without entropy =      -13.87803556  energy(sigma->0) =      -13.87803556


--------------------------------------------------------------------------------------------------------




--------------------------------------- Iteration      1(  12)  ---------------------------------------


    POTLOK:  cpu time    0.0420: real time    0.0444
    SETDIJ:  cpu time    0.0040: real time    0.0031
     EDDAV:  cpu time   17.8873: real time   17.9151
       DOS:  cpu time    0.0030: real time    0.0031
    CHARGE:  cpu time    0.1970: real time    0.1968
    MIXING:  cpu time    0.0020: real time    0.0016
    --------------------------------------------
      LOOP:  cpu time   18.1352: real time   18.1642

 eigenvalue-minimisations  : 18440
 total energy-change (2. order) :-0.1521755E-04  (-0.7735189E-06)
 number of electron      34.0000001 magnetization 
 augmentation part        5.6527459 magnetization 

 Broyden mixing:
  rms(total) = 0.66797E-03    rms(broyden)= 0.66796E-03
  rms(prec ) = 0.11402E-02
  weight for this iteration     100.00

 eigenvalues of (default mixing * dielectric matrix)
  average eigenvalue GAMMA=   1.6205
  3.0493  2.3978  1.8412  0.8711  0.9890  0.9890  1.2060

 Free energy of the ion-electron system (eV)
  ---------------------------------------------------
  alpha Z        PSCENC =        20.98643715
  Ewald energy   TEWEN  =      4312.79518122
  -Hartree energ DENC   =     -6535.24321386
  -exchange      EXHF   =         0.00000000
  -V(xc)+E(xc)   XCENC  =        28.03182113
  PAW double counting   =      2713.53983726    -2646.29165772
  entropy T*S    EENTRO =        -0.00000000
  eigenvalues    EBANDS =      -274.11881712
  atomic energy  EATOM  =      2366.42236118
  Solvation  Ediel_sol  =         0.00000000
  ---------------------------------------------------
  free energy    TOTEN  =       -13.87805078 eV

  energy without entropy =      -13.87805078  energy(sigma->0) =      -13.87805078


--------------------------------------------------------------------------------------------------------




--------------------------------------- Iteration      1(  13)  ---------------------------------------


    POTLOK:  cpu time    0.0410: real time    0.0420
    SETDIJ:  cpu time    0.0040: real time    0.0031
     EDDAV:  cpu time   18.1502: real time   18.1783
       DOS:  cpu time    0.0040: real time    0.0031
    CHARGE:  cpu time    0.1960: real time    0.1968
    MIXING:  cpu time    0.0020: real time    0.0016
    --------------------------------------------
      LOOP:  cpu time   18.3972: real time   18.4250

 eigenvalue-minimisations  : 18832
 total energy-change (2. order) :-0.3304546E-04  (-0.1881943E-06)
 number of electron      34.0000001 magnetization 
 augmentation part        5.6526550 magnetization 

 Broyden mixing:
  rms(total) = 0.53629E-03    rms(broyden)= 0.53629E-03
  rms(prec ) = 0.78851E-03
  weight for this iteration     100.00

 eigenvalues of (default mixing * dielectric matrix)
  average eigenvalue GAMMA=   1.6465
  2.6528  2.6528  2.2474  1.7314  0.8680  0.9690  0.9690  1.0816

 Free energy of the ion-electron system (eV)
  ---------------------------------------------------
  alpha Z        PSCENC =        20.98643715
  Ewald energy   TEWEN  =      4312.79518122
  -Hartree energ DENC   =     -6535.51676622
  -exchange      EXHF   =         0.00000000
  -V(xc)+E(xc)   XCENC  =        28.03484749
  PAW double counting   =      2713.38190904    -2646.13492413
  entropy T*S    EENTRO =        -0.00000000
  eigenvalues    EBANDS =      -273.84712955
  atomic energy  EATOM  =      2366.42236118
  Solvation  Ediel_sol  =         0.00000000
  ---------------------------------------------------
  free energy    TOTEN  =       -13.87808382 eV

  energy without entropy =      -13.87808382  energy(sigma->0) =      -13.87808382


--------------------------------------------------------------------------------------------------------




--------------------------------------- Iteration      1(  14)  ---------------------------------------


    POTLOK:  cpu time    0.0420: real time    0.0432
    SETDIJ:  cpu time    0.0030: real time    0.0031
     EDDAV:  cpu time   17.6023: real time   17.6245
       DOS:  cpu time    0.0030: real time    0.0031
    CHARGE:  cpu time    0.1970: real time    0.1971
    MIXING:  cpu time    0.0020: real time    0.0017
    --------------------------------------------
      LOOP:  cpu time   17.8493: real time   17.8727

 eigenvalue-minimisations  : 17992
 total energy-change (2. order) :-0.4390419E-04  (-0.5664253E-07)
 number of electron      34.0000001 magnetization 
 augmentation part        5.6527092 magnetization 

 Broyden mixing:
  rms(total) = 0.24517E-03    rms(broyden)= 0.24517E-03
  rms(prec ) = 0.43073E-03
  weight for this iteration     100.00

 eigenvalues of (default mixing * dielectric matrix)
  average eigenvalue GAMMA=   1.7856
  4.1227  2.6740  2.4021  1.7581  1.3198  0.8739  0.9760  0.9760  0.9682

 Free energy of the ion-electron system (eV)
  ---------------------------------------------------
  alpha Z        PSCENC =        20.98643715
  Ewald energy   TEWEN  =      4312.79518122
  -Hartree energ DENC   =     -6535.70598396
  -exchange      EXHF   =         0.00000000
  -V(xc)+E(xc)   XCENC  =        28.03608572
  PAW double counting   =      2713.52482652    -2646.27587273
  entropy T*S    EENTRO =        -0.00000000
  eigenvalues    EBANDS =      -273.66116281
  atomic energy  EATOM  =      2366.42236118
  Solvation  Ediel_sol  =         0.00000000
  ---------------------------------------------------
  free energy    TOTEN  =       -13.87812773 eV

  energy without entropy =      -13.87812773  energy(sigma->0) =      -13.87812773


--------------------------------------------------------------------------------------------------------




--------------------------------------- Iteration      1(  15)  ---------------------------------------


    POTLOK:  cpu time    0.0430: real time    0.0451
    SETDIJ:  cpu time    0.0030: real time    0.0031
     EDDAV:  cpu time   17.6313: real time   17.6631
       DOS:  cpu time    0.0040: real time    0.0032
    CHARGE:  cpu time    0.1960: real time    0.1974
    MIXING:  cpu time    0.0030: real time    0.0017
    --------------------------------------------
      LOOP:  cpu time   17.8803: real time   17.9136

 eigenvalue-minimisations  : 17856
 total energy-change (2. order) :-0.3385251E-04  (-0.4798109E-07)
 number of electron      34.0000001 magnetization 
 augmentation part        5.6527762 magnetization 

 Broyden mixing:
  rms(total) = 0.13984E-03    rms(broyden)= 0.13984E-03
  rms(prec ) = 0.22418E-03
  weight for this iteration     100.00

 eigenvalues of (default mixing * dielectric matrix)
  average eigenvalue GAMMA=   1.9824
  5.8689  2.7581  2.5176  2.1823  1.6051  1.1398  0.9666  0.9666  0.8779  0.9414

 Free energy of the ion-electron system (eV)
  ---------------------------------------------------
  alpha Z        PSCENC =        20.98643715
  Ewald energy   TEWEN  =      4312.79518122
  -Hartree energ DENC   =     -6535.87845162
  -exchange      EXHF   =         0.00000000
  -V(xc)+E(xc)   XCENC  =        28.03727305
  PAW double counting   =      2713.37345061    -2646.12433658
  entropy T*S    EENTRO =        -0.00000000
  eigenvalues    EBANDS =      -273.49007658
  atomic energy  EATOM  =      2366.42236118
  Solvation  Ediel_sol  =         0.00000000
  ---------------------------------------------------
  free energy    TOTEN  =       -13.87816158 eV

  energy without entropy =      -13.87816158  energy(sigma->0) =      -13.87816158


--------------------------------------------------------------------------------------------------------




--------------------------------------- Iteration      1(  16)  ---------------------------------------


    POTLOK:  cpu time    0.0430: real time    0.0462
    SETDIJ:  cpu time    0.0040: real time    0.0031
     EDDAV:  cpu time   17.3804: real time   17.3999
       DOS:  cpu time    0.0040: real time    0.0032
    CHARGE:  cpu time    0.1970: real time    0.1971
    MIXING:  cpu time    0.0020: real time    0.0018
    --------------------------------------------
      LOOP:  cpu time   17.6303: real time   17.6513

 eigenvalue-minimisations  : 17432
 total energy-change (2. order) :-0.3024152E-04  (-0.3158611E-07)
 number of electron      34.0000001 magnetization 
 augmentation part        5.6527986 magnetization 

 Broyden mixing:
  rms(total) = 0.82756E-04    rms(broyden)= 0.82755E-04
  rms(prec ) = 0.11550E-03
  weight for this iteration     100.00

 eigenvalues of (default mixing * dielectric matrix)
  average eigenvalue GAMMA=   2.0553
  6.6551  2.8033  2.4915  2.4915  1.6634  1.6634  0.8747  0.9725  0.9725  1.0630
  0.9574

 Free energy of the ion-electron system (eV)
  ---------------------------------------------------
  alpha Z        PSCENC =        20.98643715
  Ewald energy   TEWEN  =      4312.79518122
  -Hartree energ DENC   =     -6535.95934957
  -exchange      EXHF   =         0.00000000
  -V(xc)+E(xc)   XCENC  =        28.03740389
  PAW double counting   =      2713.39139819    -2646.14259060
  entropy T*S    EENTRO =        -0.00000000
  eigenvalues    EBANDS =      -273.40903327
  atomic energy  EATOM  =      2366.42236118
  Solvation  Ediel_sol  =         0.00000000
  ---------------------------------------------------
  free energy    TOTEN  =       -13.87819182 eV

  energy without entropy =      -13.87819182  energy(sigma->0) =      -13.87819182


--------------------------------------------------------------------------------------------------------




--------------------------------------- Iteration      1(  17)  ---------------------------------------


    POTLOK:  cpu time    0.0430: real time    0.0433
    SETDIJ:  cpu time    0.0030: real time    0.0031
     EDDAV:  cpu time   17.6033: real time   17.6254
       DOS:  cpu time    0.0040: real time    0.0034
    CHARGE:  cpu time    0.1970: real time    0.1974
    MIXING:  cpu time    0.0030: real time    0.0019
    --------------------------------------------
      LOOP:  cpu time   17.8533: real time   17.8745

 eigenvalue-minimisations  : 17696
 total energy-change (2. order) :-0.1449692E-04  (-0.4908537E-08)
 number of electron      34.0000001 magnetization 
 augmentation part        5.6527845 magnetization 

 Broyden mixing:
  rms(total) = 0.36472E-04    rms(broyden)= 0.36472E-04
  rms(prec ) = 0.56129E-04
  weight for this iteration     100.00

 eigenvalues of (default mixing * dielectric matrix)
  average eigenvalue GAMMA=   2.2227
  7.8018  3.9653  2.5682  2.4407  2.2405  1.5982  1.2529  0.8740  0.9740  0.9740
  0.9843  0.9980

 Free energy of the ion-electron system (eV)
  ---------------------------------------------------
  alpha Z        PSCENC =        20.98643715
  Ewald energy   TEWEN  =      4312.79518122
  -Hartree energ DENC   =     -6535.97796249
  -exchange      EXHF   =         0.00000000
  -V(xc)+E(xc)   XCENC  =        28.03739901
  PAW double counting   =      2713.37109983    -2646.12211797
  entropy T*S    EENTRO =        -0.00000000
  eigenvalues    EBANDS =      -273.39060423
  atomic energy  EATOM  =      2366.42236118
  Solvation  Ediel_sol  =         0.00000000
  ---------------------------------------------------
  free energy    TOTEN  =       -13.87820632 eV

  energy without entropy =      -13.87820632  energy(sigma->0) =      -13.87820632


--------------------------------------------------------------------------------------------------------




--------------------------------------- Iteration      1(  18)  ---------------------------------------


    POTLOK:  cpu time    0.0420: real time    0.0445
    SETDIJ:  cpu time    0.0040: real time    0.0031
     EDDAV:  cpu time   17.1504: real time   17.1696
       DOS:  cpu time    0.0040: real time    0.0032
    CHARGE:  cpu time    0.1970: real time    0.1973
    MIXING:  cpu time    0.0020: real time    0.0020
    --------------------------------------------
      LOOP:  cpu time   17.3994: real time   17.4198

 eigenvalue-minimisations  : 17056
 total energy-change (2. order) :-0.9072833E-05  (-0.3604867E-08)
 number of electron      34.0000001 magnetization 
 augmentation part        5.6527845 magnetization 

 Broyden mixing:
  rms(total) = 0.19714E-04    rms(broyden)= 0.19714E-04
  rms(prec ) = 0.25220E-04
  weight for this iteration     100.00

 eigenvalues of (default mixing * dielectric matrix)
  average eigenvalue GAMMA=   2.3888
  8.6689  4.6705  3.2049  2.5146  2.3849  2.0531  1.6556  1.1262  0.8740  0.9728
  0.9728  0.9781  0.9781

 Free energy of the ion-electron system (eV)
  ---------------------------------------------------
  alpha Z        PSCENC =        20.98643715
  Ewald energy   TEWEN  =      4312.79518122
  -Hartree energ DENC   =     -6535.98890551
  -exchange      EXHF   =         0.00000000
  -V(xc)+E(xc)   XCENC  =        28.03735775
  PAW double counting   =      2713.40289900    -2646.15401724
  entropy T*S    EENTRO =        -0.00000000
  eigenvalues    EBANDS =      -273.37952893
  atomic energy  EATOM  =      2366.42236118
  Solvation  Ediel_sol  =         0.00000000
  ---------------------------------------------------
  free energy    TOTEN  =       -13.87821539 eV

  energy without entropy =      -13.87821539  energy(sigma->0) =      -13.87821539


--------------------------------------------------------------------------------------------------------




--------------------------------------- Iteration      1(  19)  ---------------------------------------


    POTLOK:  cpu time    0.0440: real time    0.0468
    SETDIJ:  cpu time    0.0030: real time    0.0031
     EDDAV:  cpu time   17.2544: real time   17.2739
       DOS:  cpu time    0.0040: real time    0.0032
    CHARGE:  cpu time    0.1960: real time    0.1976
    MIXING:  cpu time    0.0030: real time    0.0020
    --------------------------------------------
      LOOP:  cpu time   17.5043: real time   17.5265

 eigenvalue-minimisations  : 17192
 total energy-change (2. order) :-0.3353794E-05  (-0.8833322E-09)
 number of electron      34.0000001 magnetization 
 augmentation part        5.6527862 magnetization 

 Broyden mixing:
  rms(total) = 0.95878E-05    rms(broyden)= 0.95878E-05
  rms(prec ) = 0.10380E-04
  weight for this iteration     100.00

 eigenvalues of (default mixing * dielectric matrix)
  average eigenvalue GAMMA=   2.3374
  8.9843  4.8007  3.2629  2.4934  2.4217  2.2719  1.6109  1.2150  0.9733  0.9733
  0.9950  0.9950  0.8739  0.8530

 Free energy of the ion-electron system (eV)
  ---------------------------------------------------
  alpha Z        PSCENC =        20.98643715
  Ewald energy   TEWEN  =      4312.79518122
  -Hartree energ DENC   =     -6535.99162661
  -exchange      EXHF   =         0.00000000
  -V(xc)+E(xc)   XCENC  =        28.03736639
  PAW double counting   =      2713.38738974    -2646.13846711
  entropy T*S    EENTRO =        -0.00000000
  eigenvalues    EBANDS =      -273.37686070
  atomic energy  EATOM  =      2366.42236118
  Solvation  Ediel_sol  =         0.00000000
  ---------------------------------------------------
  free energy    TOTEN  =       -13.87821874 eV

  energy without entropy =      -13.87821874  energy(sigma->0) =      -13.87821874


--------------------------------------------------------------------------------------------------------




--------------------------------------- Iteration      1(  20)  ---------------------------------------


    POTLOK:  cpu time    0.0440: real time    0.0469
    SETDIJ:  cpu time    0.0040: real time    0.0031
     EDDAV:  cpu time   18.0073: real time   18.0274
       DOS:  cpu time    0.0030: real time    0.0032
    --------------------------------------------
      LOOP:  cpu time   18.0583: real time   18.0807

 eigenvalue-minimisations  : 18256
 total energy-change (2. order) :-0.3206269E-06  (-0.4188402E-10)
 number of electron      34.0000001 magnetization 
 augmentation part        5.6527862 magnetization 

 Free energy of the ion-electron system (eV)
  ---------------------------------------------------
  alpha Z        PSCENC =        20.98643715
  Ewald energy   TEWEN  =      4312.79518122
  -Hartree energ DENC   =     -6535.99179685
  -exchange      EXHF   =         0.00000000
  -V(xc)+E(xc)   XCENC  =        28.03736284
  PAW double counting   =      2713.38906145    -2646.14014598
  entropy T*S    EENTRO =        -0.00000000
  eigenvalues    EBANDS =      -273.37668007
  atomic energy  EATOM  =      2366.42236118
  Solvation  Ediel_sol  =         0.00000000
  ---------------------------------------------------
  free energy    TOTEN  =       -13.87821906 eV

  energy without entropy =      -13.87821906  energy(sigma->0) =      -13.87821906


--------------------------------------------------------------------------------------------------------




 average (electrostatic) potential at core
  the test charge radii are     1.2098  1.0808
  (the norm of the test charge is              1.0000)
       1 -77.4234       2 -75.9953       3 -62.0616       4 -62.0616
 
 
 
 E-fermi :  -3.5445     XC(G=0):  -2.3570     alpha+bet : -1.7017


 k-point     1 :       0.0312    0.0312    0.0000
  band No.  band energies     occupation 
      1     -17.3903      2.00000
      2     -16.2204      2.00000
      3      -9.9255      2.00000
      4      -9.6131      2.00000
      5      -8.8017      2.00000
      6      -7.6365      2.00000
      7      -7.4384      2.00000
      8      -7.2137      2.00000
      9      -6.8858      2.00000
     10      -6.4701      2.00000
     11      -6.3594      2.00000
     12      -6.1929      2.00000
     13      -5.7647      2.00000
     14      -5.6387      2.00000
     15      -5.1354      2.00000
     16      -5.0391      2.00000
     17      -4.9330      2.00000
     18      -1.5742      0.00000
     19      -0.6113      0.00000
     20      -0.2847      0.00000
     21       0.8979      0.00000
     22       1.2635      0.00000
     23       1.6238      0.00000
     24       2.1860      0.00000
     25       2.3308      0.00000
     26       2.9261      0.00000
     27       3.5785      0.00000
     28       3.9636      0.00000
     29       4.3899      0.00000
     30       4.4865      0.00000
     31       4.7373      0.00000
     32       5.1822      0.00000
     33       5.4746      0.00000
     34       5.4778      0.00000
     35       5.5495      0.00000
     36       5.7201      0.00000
     37       5.8635      0.00000
     38       5.9570      0.00000
     39       6.1961      0.00000
     40       6.3296      0.00000
     41       6.5511      0.00000
     42       6.6734      0.00000
     43       6.8259      0.00000
     44       7.0153      0.00000
     45       7.4365      0.00000
     46       7.6431      0.00000
     47       8.1558      0.00000
     48       8.3580      0.00000
     49       8.8343      0.00000
     50       9.0281      0.00000
     51       9.2674      0.00000
     52       9.4922      0.00000
     53       9.6169      0.00000
     54       9.9715      0.00000
     55      10.0805      0.00000
     56      10.1854      0.00000
     57      10.4789      0.00000
     58      10.7429      0.00000
     59      10.8542      0.00000
     60      11.0957      0.00000
     61      11.2494      0.00000
     62      11.6281      0.00000
     63      11.6747      0.00000
     64      11.9176      0.00000
     65      11.9592      0.00000
     66      12.1778      0.00000
     67      12.4591      0.00000
     68      12.5736      0.00000
     69      12.8447      0.00000
     70      12.9513      0.00000
     71      13.1348      0.00000
     72      13.1787      0.00000
     73      13.2881      0.00000
     74      13.3620      0.00000
     75      13.4842      0.00000
     76      13.5700      0.00000
     77      13.8657      0.00000
     78      14.0679      0.00000
     79      14.3206      0.00000
     80      14.4036      0.00000
     81      14.5459      0.00000
     82      14.6093      0.00000
     83      14.7005      0.00000
     84      14.8974      0.00000
     85      14.9965      0.00000
     86      15.3134      0.00000
     87      15.3465      0.00000
     88      15.4512      0.00000
     89      15.6676      0.00000
     90      15.7530      0.00000
     91      15.8102      0.00000
     92      15.9359      0.00000
     93      15.9398      0.00000
     94      16.0521      0.00000
     95      16.1607      0.00000
     96      16.2157      0.00000
     97      16.3049      0.00000
     98      16.4075      0.00000
     99      16.5249      0.00000
    100      16.5889      0.00000
    101      16.6311      0.00000
    102      16.7482      0.00000
    103      16.8000      0.00000
    104      16.8411      0.00000
    105      16.9351      0.00000
    106      16.9946      0.00000
    107      17.1374      0.00000
    108      17.1892      0.00000
    109      17.2699      0.00000
    110      17.3074      0.00000
    111      17.3195      0.00000
    112      17.3677      0.00000
    113      17.4362      0.00000
    114      17.5499      0.00000
    115      17.6362      0.00000
    116      17.6970      0.00000
    117      17.8363      0.00000
    118      17.9503      0.00000
    119      17.9776      0.00000
    120      18.0570      0.00000
    121      18.1534      0.00000
    122      18.3225      0.00000
    123      18.3733      0.00000
    124      18.3942      0.00000
    125      18.4545      0.00000
    126      18.5051      0.00000
    127      18.6278      0.00000
    128      18.7053      0.00000

 k-point     2 :       0.0937    0.0312    0.0000
  band No.  band energies     occupation 
      1     -17.3421      2.00000
      2     -16.2278      2.00000
[...]
    100      15.8247      0.00000
    101      15.9753      0.00000
    102      16.0505      0.00000
    103      16.2178      0.00000
    104      16.4092      0.00000
    105      16.5702      0.00000
    106      16.6037      0.00000
    107      16.8163      0.00000
    108      16.9794      0.00000
    109      17.0109      0.00000
    110      17.1712      0.00000
    111      17.2474      0.00000
    112      17.4843      0.00000
    113      17.6817      0.00000
    114      17.9012      0.00000
    115      18.1906      0.00000
    116      18.3134      0.00000
    117      18.5610      0.00000
    118      18.6848      0.00000
    119      18.7537      0.00000
    120      18.9448      0.00000
    121      18.9754      0.00000
    122      19.0725      0.00000
    123      19.2918      0.00000
    124      19.4426      0.00000
    125      19.5335      0.00000
    126      19.5963      0.00000
    127      19.7514      0.00000
    128      19.9387      0.00000

 k-point    63 :       0.4062    0.4687    0.0000
  band No.  band energies     occupation 
      1     -16.5914      2.00000
      2     -16.4031      2.00000
      3      -9.6687      2.00000
      4      -9.3818      2.00000
      5      -8.5622      2.00000
      6      -7.8970      2.00000
      7      -7.6462      2.00000
      8      -7.2109      2.00000
      9      -6.9677      2.00000
     10      -6.7726      2.00000
     11      -6.4846      2.00000
     12      -6.2164      2.00000
     13      -6.0824      2.00000
     14      -5.7583      2.00000
     15      -5.5522      2.00000
     16      -5.1915      2.00000
     17      -4.6238      2.00000
     18      -2.1304      0.00000
     19      -0.6888      0.00000
     20       0.1726      0.00000
     21       0.9210      0.00000
     22       2.0262      0.00000
     23       3.3553      0.00000
     24       3.4410      0.00000
     25       3.7096      0.00000
     26       4.0362      0.00000
     27       4.1585      0.00000
     28       4.4452      0.00000
     29       4.6559      0.00000
     30       4.6914      0.00000
     31       5.0502      0.00000
     32       5.2454      0.00000
     33       5.3297      0.00000
     34       5.4425      0.00000
     35       5.6316      0.00000
     36       5.7075      0.00000
     37       6.0467      0.00000
     38       6.2887      0.00000
     39       6.4593      0.00000
     40       6.5785      0.00000
     41       6.6404      0.00000
     42       6.7969      0.00000
     43       6.8284      0.00000
     44       7.0185      0.00000
     45       7.1083      0.00000
     46       7.2862      0.00000
     47       7.3195      0.00000
     48       7.6090      0.00000
     49       7.6921      0.00000
     50       7.9245      0.00000
     51       8.0307      0.00000
     52       8.3330      0.00000
     53       8.6456      0.00000
     54       8.9349      0.00000
     55       9.1665      0.00000
     56       9.2696      0.00000
     57       9.4782      0.00000
     58       9.6703      0.00000
     59      10.0388      0.00000
     60      10.0862      0.00000
     61      10.3903      0.00000
     62      10.6361      0.00000
     63      10.8496      0.00000
     64      10.9676      0.00000
     65      11.0976      0.00000
     66      11.2591      0.00000
     67      11.4632      0.00000
     68      11.7460      0.00000
     69      11.8393      0.00000
     70      11.9764      0.00000
     71      11.9958      0.00000
     72      12.1854      0.00000
     73      12.3759      0.00000
     74      12.4939      0.00000
     75      12.5324      0.00000
     76      12.6086      0.00000
     77      12.7409      0.00000
     78      13.0302      0.00000
     79      13.0794      0.00000
     80      13.1372      0.00000
     81      13.2768      0.00000
     82      13.5167      0.00000
     83      13.6159      0.00000
     84      13.7510      0.00000
     85      13.8938      0.00000
     86      14.0078      0.00000
     87      14.1716      0.00000
     88      14.3038      0.00000
     89      14.3895      0.00000
     90      14.4989      0.00000
     91      14.5235      0.00000
     92      14.6955      0.00000
     93      14.7523      0.00000
     94      15.0000      0.00000
     95      15.0829      0.00000
     96      15.1689      0.00000
     97      15.3293      0.00000
     98      15.4582      0.00000
     99      15.6243      0.00000
    100      15.7680      0.00000
    101      15.8369      0.00000
    102      15.8964      0.00000
    103      16.1032      0.00000
    104      16.2075      0.00000
    105      16.4644      0.00000
    106      16.6510      0.00000
    107      16.7218      0.00000
    108      16.9000      0.00000
    109      17.0980      0.00000
    110      17.1236      0.00000
    111      17.3940      0.00000
    112      17.5556      0.00000
    113      17.5977      0.00000
    114      17.7205      0.00000
    115      17.8970      0.00000
    116      18.1138      0.00000
    117      18.1574      0.00000
    118      18.3998      0.00000
    119      18.5393      0.00000
    120      18.6751      0.00000
    121      18.7969      0.00000
    122      19.1069      0.00000
    123      19.1785      0.00000
    124      19.2418      0.00000
    125      19.4097      0.00000
    126      19.6251      0.00000
    127      19.6799      0.00000
    128      19.8441      0.00000

 k-point    64 :       0.4688    0.4687    0.0000
  band No.  band energies     occupation 
      1     -16.5945      2.00000
      2     -16.3309      2.00000
      3      -9.8411      2.00000
      4      -9.3718      2.00000
      5      -8.4813      2.00000
      6      -7.6214      2.00000
      7      -7.5646      2.00000
      8      -7.1379      2.00000
      9      -6.9494      2.00000
     10      -6.8728      2.00000
     11      -6.7004      2.00000
     12      -6.3463      2.00000
     13      -6.2180      2.00000
     14      -5.7444      2.00000
     15      -5.5833      2.00000
     16      -5.2467      2.00000
     17      -4.3733      2.00000
     18      -1.9736      0.00000
     19      -1.0838      0.00000
     20       0.0299      0.00000
     21       1.1195      0.00000
     22       2.1977      0.00000
     23       3.1881      0.00000
     24       3.7211      0.00000
     25       3.9759      0.00000
     26       4.1181      0.00000
     27       4.5918      0.00000
     28       4.7118      0.00000
     29       4.8380      0.00000
     30       5.0226      0.00000
     31       5.1748      0.00000
     32       5.2795      0.00000
     33       5.3811      0.00000
     34       5.5293      0.00000
     35       5.7252      0.00000
     36       5.7601      0.00000
     37       5.9001      0.00000
     38       5.9632      0.00000
     39       6.0944      0.00000
     40       6.2462      0.00000
     41       6.4271      0.00000
     42       6.4988      0.00000
     43       6.5799      0.00000
     44       6.8448      0.00000
     45       6.9992      0.00000
     46       7.2146      0.00000
     47       7.3046      0.00000
     48       7.4664      0.00000
     49       7.5057      0.00000
     50       7.7257      0.00000
     51       8.0727      0.00000
     52       8.2366      0.00000
     53       8.3892      0.00000
     54       8.6270      0.00000
     55       8.9075      0.00000
     56       9.1136      0.00000
     57       9.5934      0.00000
     58       9.9521      0.00000
     59       9.9769      0.00000
     60      10.1326      0.00000
     61      10.6090      0.00000
     62      10.9015      0.00000
     63      10.9971      0.00000
     64      11.0449      0.00000
     65      11.1678      0.00000
     66      11.5370      0.00000
     67      11.6087      0.00000
     68      11.7321      0.00000
     69      11.8075      0.00000
     70      12.0509      0.00000
     71      12.2875      0.00000
     72      12.3772      0.00000
     73      12.4800      0.00000
     74      12.6283      0.00000
     75      12.6828      0.00000
     76      12.8060      0.00000
     77      12.8375      0.00000
     78      13.0144      0.00000
     79      13.0933      0.00000
     80      13.2172      0.00000
     81      13.2466      0.00000
     82      13.3974      0.00000
     83      13.4260      0.00000
     84      13.6373      0.00000
     85      13.7006      0.00000
     86      13.7684      0.00000
     87      13.9834      0.00000
     88      14.0414      0.00000
     89      14.0688      0.00000
     90      14.1355      0.00000
     91      14.3457      0.00000
     92      14.4230      0.00000
     93      14.5022      0.00000
     94      14.5733      0.00000
     95      14.7152      0.00000
     96      14.9474      0.00000
     97      15.1243      0.00000
     98      15.1787      0.00000
     99      15.3127      0.00000
    100      15.5842      0.00000
    101      15.6735      0.00000
    102      15.9336      0.00000
    103      16.0565      0.00000
    104      16.2360      0.00000
    105      16.3670      0.00000
    106      16.6081      0.00000
    107      16.7655      0.00000
    108      16.8489      0.00000
    109      17.1167      0.00000
    110      17.1907      0.00000
    111      17.2606      0.00000
    112      17.5746      0.00000
    113      17.6519      0.00000
    114      17.7495      0.00000
    115      17.8696      0.00000
    116      17.9333      0.00000
    117      18.1426      0.00000
    118      18.2310      0.00000
    119      18.3595      0.00000
    120      18.5689      0.00000
    121      18.8378      0.00000
    122      18.9674      0.00000
    123      19.0991      0.00000
    124      19.2549      0.00000
    125      19.5797      0.00000
    126      19.7786      0.00000
    127      19.9713      0.00000
    128      20.0815      0.00000


--------------------------------------------------------------------------------------------------------


 soft charge-density along one line, spin component           1
         0         1         2         3         4         5         6         7         8         9
 total charge-density along one line
 
 pseudopotential strength for first ion, spin component:           1
 -9.502  -0.000  -0.000   0.125  -0.000  -9.616  -0.000  -0.000
 -0.000  -9.397   0.032   0.000  -0.056  -0.000  -9.513   0.031
 -0.000   0.032  -9.419  -0.000   0.053  -0.000   0.031  -9.534
  0.125   0.000  -0.000  -9.537  -0.000   0.122   0.000  -0.000
 -0.000  -0.056   0.053  -0.000  -9.455  -0.000  -0.055   0.052
 -9.616  -0.000  -0.000   0.122  -0.000  -9.714  -0.000  -0.000
 -0.000  -9.513   0.031   0.000  -0.055  -0.000  -9.614   0.030
 -0.000   0.031  -9.534  -0.000   0.052  -0.000   0.030  -9.634
  0.122   0.000  -0.000  -9.651  -0.000   0.120   0.000  -0.000
 -0.000  -0.055   0.052  -0.000  -9.569  -0.000  -0.054   0.051
 -0.000  -0.050  -0.010   0.000   0.033  -0.000  -0.049  -0.010
 -0.000  -0.072  -0.015   0.000   0.048  -0.000  -0.071  -0.015
 -0.000  -0.000   0.000  -0.000   0.000  -0.000  -0.000   0.000
 -0.000  -0.000  -0.000  -0.000   0.000  -0.000  -0.000  -0.000
 -0.000  -0.000   0.000  -0.000  -0.000  -0.000  -0.000   0.000
 -0.000  -0.000   0.000  -0.000   0.000  -0.000  -0.000   0.000
 -0.000  -0.000  -0.000  -0.000   0.000  -0.000  -0.000  -0.000
 -0.000  -0.000   0.000  -0.000  -0.000  -0.000  -0.000   0.000
 total augmentation occupancy for first ion, spin component:           1
  3.673   0.000   0.000   0.739   0.000  -2.059   0.000   0.000   0.260   0.000   0.000   0.000   0.000   0.000   0.000   0.000
  0.000   4.243  -0.356   0.000  -0.089   0.000  -1.944   0.297   0.000   0.149   1.771  -0.361   0.000   0.000   0.000   0.000
  0.000  -0.356   4.463   0.000  -0.085   0.000   0.295  -1.982   0.000   0.210   0.465  -0.132   0.000   0.000   0.000   0.000
  0.739   0.000   0.000   3.623   0.000   0.262   0.000   0.000  -2.273   0.000   0.000   0.000   0.000   0.000   0.000   0.000
  0.000  -0.089  -0.085   0.000   4.908   0.000   0.152   0.209   0.000  -2.540  -1.296   0.280   0.000   0.000   0.000   0.000
 -2.059   0.000   0.000   0.262   0.000   2.261   0.000   0.000  -1.035   0.000   0.000   0.000   0.000   0.000   0.000   0.000
  0.000  -1.944   0.295   0.000   0.152   0.000   1.618  -0.247   0.000  -0.194  -1.575   0.338   0.000   0.000   0.000   0.000
  0.000   0.297  -1.982   0.000   0.209   0.000  -0.247   1.512   0.000  -0.318  -0.428   0.131   0.000   0.000   0.000   0.000
  0.260   0.000   0.000  -2.273   0.000  -1.035   0.000   0.000   2.680   0.000   0.000   0.000   0.000   0.000   0.000   0.000
  0.000   0.149   0.210   0.000  -2.540   0.000  -0.194  -0.318   0.000   2.166   1.182  -0.274   0.000   0.000   0.000   0.000
  0.000   1.771   0.465   0.000  -1.296   0.000  -1.575  -0.428   0.000   1.182   2.347  -0.498   0.000   0.000   0.000   0.000
  0.000  -0.361  -0.132   0.000   0.280   0.000   0.338   0.131   0.000  -0.274  -0.498   0.201   0.000   0.000   0.000   0.000
  0.000   0.000   0.000   0.000   0.000   0.000   0.000   0.000   0.000   0.000   0.000   0.000   0.146  -0.109   0.000  -0.004
  0.000   0.000   0.000   0.000   0.000   0.000   0.000   0.000   0.000   0.000   0.000   0.000  -0.109   0.177   0.000   0.003
  0.000   0.000   0.000   0.000   0.000   0.000   0.000   0.000   0.000   0.000   0.000   0.000   0.000   0.000   0.305   0.000
  0.000   0.000   0.000   0.000   0.000   0.000   0.000   0.000   0.000   0.000   0.000   0.000  -0.004   0.003   0.000   0.000
  0.000   0.000   0.000   0.000   0.000   0.000   0.000   0.000   0.000   0.000   0.000   0.000   0.003  -0.005   0.000  -0.000
  0.000   0.000   0.000   0.000   0.000   0.000   0.000   0.000   0.000   0.000   0.000   0.000   0.000   0.000  -0.009   0.000


------------------------ aborting loop because EDIFF is reached ----------------------------------------


    CHARGE:  cpu time    0.1980: real time    0.1979
    FORLOC:  cpu time    0.0030: real time    0.0036
    FORNL :  cpu time    2.1187: real time    2.1199
    STRESS:  cpu time    3.5525: real time    3.5562
    FORCOR:  cpu time    0.0480: real time    0.0474
    FORHAR:  cpu time    0.0120: real time    0.0122
    MIXING:  cpu time    0.0020: real time    0.0020
    OFIELD:  cpu time    0.0000: real time    0.0000

  FORCE on cell =-STRESS in cart. coord.  units (eV):
  Direction    XX          YY          ZZ          XY          YZ          ZX
  --------------------------------------------------------------------------------------
  Alpha Z    20.96161    20.96161    20.96161
  Ewald    5756.77201  5690.52887 -7114.36094     0.00000   -54.60721    -0.00000
  Hartree  6253.03520  6195.02636 -5891.61197    -0.00000   -48.55576    -0.00000
  E(xc)    -143.01626  -143.07936  -143.83982     0.00000    -0.13315    -0.00000
  Local  -12544.95937-12419.81501 12461.65491     0.00000   101.18460     0.00000
  n-local    91.75228    89.81649    91.01420    -0.99419    -0.56182     0.05054
  augment   124.88498   124.98765   125.98372     0.00000     0.36509    -0.00000
  Kinetic   440.62382   441.59413   450.14860    -0.51739     2.33702    -0.89464
  Fock        0.00000     0.00000     0.00000     0.00000     0.00000     0.00000
  -------------------------------------------------------------------------------------
  Total       0.05426     0.02075    -0.04969     0.00000     0.02878     0.00000
  in kB       0.16339     0.06248    -0.14962     0.00000     0.08666     0.00000
  external pressure =        0.02 kB  Pullay stress =        0.00 kB


 VOLUME and BASIS-vectors are now :
 -----------------------------------------------------------------------------
  energy-cutoff  :      520.00
  volume of cell :      532.05
      direct lattice vectors                 reciprocal lattice vectors
     3.715649905  0.000000000  0.000000000     0.269131922  0.000000000  0.000000000
     0.000000000  6.329394412 -0.014174708     0.000000000  0.157993791  0.000354222
     0.000000000 -0.050721907 22.623537527     0.000000000  0.000098991  0.044201974

  length of vectors
     3.715649905  6.329410284 22.623594386     0.269131922  0.157994189  0.044202085


 FORCES acting on ions
    electron-ion (+dipol)            ewald-force                    non-local-force                 convergence-correction
 -----------------------------------------------------------------------------------------------
   0.217E-12 0.101E-03 0.112E-02   0.164E-13 -.441E-04 -.728E-03   0.000E+00 0.860E-21 -.339E-20   0.213E-13 0.222E-09 -.591E-08
   -.100E-13 0.149E-03 -.141E-02   0.512E-14 -.385E-03 0.736E-03   0.000E+00 -.602E-20 -.339E-20   0.533E-13 -.900E-09 -.610E-08
   -.673E-14 -.886E+01 0.446E+03   -.959E-14 0.910E+01 -.450E+03   0.000E+00 -.248E+00 0.440E+01   0.157E-14 0.156E-04 -.233E-04
   -.735E-15 0.886E+01 -.446E+03   -.298E-13 -.910E+01 0.450E+03   0.000E+00 0.248E+00 -.440E+01   0.121E-13 -.156E-04 0.233E-04
 -----------------------------------------------------------------------------------------------
   0.199E-12 -.631E-03 -.350E-04   -.179E-13 0.142E-13 0.000E+00   0.000E+00 0.000E+00 -.888E-15   0.882E-13 -.306E-09 -.179E-07
 
 
 POSITION                                       TOTAL-FORCE (eV/Angst)
 -----------------------------------------------------------------------------------
      1.85782      3.82472     11.30315         0.000000     -0.000000     -0.000000
      0.00000      0.66002     11.31024         0.000000     -0.000000     -0.000000
      0.00000      4.92710     10.01793         0.000000     -0.010994      0.008178
      0.00000      2.72234     12.58836         0.000000      0.010994     -0.008178
 -----------------------------------------------------------------------------------
    total drift:                                0.000000     -0.000631     -0.000035


--------------------------------------------------------------------------------------------------------



  FREE ENERGIE OF THE ION-ELECTRON SYSTEM (eV)
  ---------------------------------------------------
  free  energy   TOTEN  =       -13.87952142 eV

  energy  without entropy=      -13.87952142  energy(sigma->0) =      -13.87952142
  enthalpy is  TOTEN    =       -13.87918934 eV   P V=        0.00033208

 d Force =-0.1015880E-04[-0.794E-04, 0.591E-04]  d Energy = 0.3918791E-04-0.493E-04
 d Force = 0.1618277E+01[ 0.162E+01, 0.162E+01]  d Ewald  =-0.1598493E+02 0.176E+02


--------------------------------------------------------------------------------------------------------


    POTLOK:  cpu time    0.0470: real time    0.0468


--------------------------------------------------------------------------------------------------------




--------------------------------------------------------------------------------------------------------


  
 reached required accuracy - stopping structural energy minimisation
     LOOP+:  cpu time  251.2418: real time  251.7040
    4ORBIT:  cpu time    0.0000: real time    0.0000

 total amount of memory used by VASP MPI-rank0   144535. kBytes
=======================================================================

   base      :      30000. kBytes
   nonl-proj :      38175. kBytes
   fftplans  :       3134. kBytes
   grid      :       4923. kBytes
   one-center:         15. kBytes
   wavefun   :      68288. kBytes
 
  
  
 General timing and accounting informations for this job:
 ========================================================
  
                  Total CPU time used (sec):     1180.275
                            User time (sec):     1176.897
                          System time (sec):        3.377
                         Elapsed time (sec):     1182.212
  
                   Maximum memory used (kb):      199548.
                   Average memory used (kb):           0.
  
                          Minor page faults:        17941
                          Major page faults:            0
                 Voluntary context switches:          708
