   2   2   0   0
  0.4095400E+02  0.2468419E-09  0.2468419E-09  0.1552239E-08  0.1000000E-15
  1.000000000000000E-004
  CAR 
 unknown system                          
     82.84744023    -26.77205123  301     -2.32429124      1.00000000
    -26.772  0.0000E+00  0.0000E+00
    -26.407  0.0000E+00  0.0000E+00
    -26.041  0.0000E+00  0.0000E+00
    -25.676  0.0000E+00  0.0000E+00
    -25.310  0.0000E+00  0.0000E+00
    -24.945  0.0000E+00  0.0000E+00
    -24.580  0.0000E+00  0.0000E+00
    -24.214  0.0000E+00  0.0000E+00
    -23.849  0.0000E+00  0.0000E+00
    -23.483  0.0000E+00  0.0000E+00
    -23.118  0.0000E+00  0.0000E+00
    -22.753  0.0000E+00  0.0000E+00
    -22.387  0.0000E+00  0.0000E+00
    -22.022  0.4656E-06  0.1701E-06
    -21.656  0.2631E-02  0.9614E-03
    -21.291  0.6341E-02  0.3279E-02
    -20.926  0.5964E-02  0.5458E-02
    -20.560  0.5940E-02  0.7628E-02
    -20.195  0.6794E-02  0.1011E-01
    -19.829  0.5208E-02  0.1201E-01
    -19.464  0.7436E-02  0.1473E-01
    -19.099  0.5864E-02  0.1687E-01
    -18.733  0.7532E-02  0.1963E-01
    -18.368  0.5841E-02  0.2176E-01
    -18.002  0.6097E-02  0.2399E-01
    -17.637  0.7428E-02  0.2670E-01
    -17.272  0.6268E-02  0.2899E-01
    -16.906  0.7920E-02  0.3189E-01
    -16.541  0.8246E-02  0.3490E-01
    -16.176  0.5393E-02  0.3687E-01
    -15.810  0.5890E-02  0.3902E-01
    -15.445  0.2463E-02  0.3992E-01
    -15.079  0.6097E-02  0.4215E-01
    -14.714  0.8348E-02  0.4520E-01
    -14.349  0.7950E-02  0.4810E-01
    -13.983  0.8180E-02  0.5109E-01
    -13.618  0.5571E-02  0.5313E-01
    -13.252  0.6255E-02  0.5542E-01
    -12.887  0.5518E-02  0.5743E-01
    -12.522  0.5900E-02  0.5959E-01
    -12.156  0.8148E-02  0.6256E-01
    -11.791  0.6252E-02  0.6485E-01
    -11.425  0.8571E-02  0.6798E-01
    -11.060  0.6917E-02  0.7051E-01
    -10.695  0.9382E-02  0.7394E-01
    -10.329  0.7218E-02  0.7657E-01
     -9.964  0.1024E-01  0.8031E-01
     -9.598  0.1375E-01  0.8534E-01
     -9.233  0.1664E-01  0.9142E-01
     -8.868  0.1622E-01  0.9735E-01
     -8.502  0.2274E-01  0.1057E+00
     -8.137  0.1625E-01  0.1116E+00
     -7.771  0.1498E-01  0.1171E+00
     -7.406  0.1330E-01  0.1219E+00
     -7.041  0.1132E-01  0.1261E+00
     -6.675  0.1213E-01  0.1305E+00
     -6.310  0.1299E-01  0.1352E+00
     -5.944  0.1143E-01  0.1394E+00
     -5.579  0.9764E-02  0.1430E+00
     -5.214  0.1117E-01  0.1471E+00
     -4.848  0.7755E-02  0.1499E+00
     -4.483  0.1076E-01  0.1538E+00
     -4.117  0.5702E-02  0.1559E+00
     -3.752  0.3877E-02  0.1573E+00
     -3.387  0.4450E-02  0.1590E+00
     -3.021  0.1501E-02  0.1595E+00
     -2.656  0.6972E-03  0.1598E+00
     -2.290  0.6603E-03  0.1600E+00
     -1.925  0.8173E-03  0.1603E+00
     -1.560  0.1349E-02  0.1608E+00
     -1.194  0.2110E-02  0.1616E+00
     -0.829  0.4928E-02  0.1634E+00
     -0.463  0.1059E-01  0.1672E+00
     -0.098  0.9468E-02  0.1707E+00
      0.267  0.5219E-02  0.1726E+00
      0.633  0.5718E-02  0.1747E+00
      0.998  0.5678E-02  0.1768E+00
      1.364  0.9199E-02  0.1801E+00
      1.729  0.9021E-02  0.1834E+00
      2.094  0.1243E-01  0.1880E+00
      2.460  0.1459E-01  0.1933E+00
      2.825  0.1464E-01  0.1986E+00
      3.191  0.1804E-01  0.2052E+00
      3.556  0.1578E-01  0.2110E+00
      3.921  0.2216E-01  0.2191E+00
      4.287  0.1758E-01  0.2255E+00
      4.652  0.2147E-01  0.2334E+00
      5.018  0.2189E-01  0.2414E+00
      5.383  0.3434E-01  0.2539E+00
      5.748  0.3293E-01  0.2659E+00
      6.114  0.4682E-01  0.2831E+00
      6.479  0.4246E-01  0.2986E+00
      6.845  0.3656E-01  0.3119E+00
      7.210  0.3531E-01  0.3248E+00
      7.575  0.3628E-01  0.3381E+00
      7.941  0.4007E-01  0.3527E+00
      8.306  0.3581E-01  0.3658E+00
      8.672  0.4448E-01  0.3821E+00
      9.037  0.3847E-01  0.3961E+00
      9.402  0.4158E-01  0.4113E+00
      9.768  0.3350E-01  0.4236E+00
     10.133  0.3935E-01  0.4379E+00
     10.499  0.5061E-01  0.4564E+00
     10.864  0.4668E-01  0.4735E+00
     11.229  0.4596E-01  0.4903E+00
     11.595  0.4508E-01  0.5068E+00
     11.960  0.3718E-01  0.5203E+00
     12.326  0.4580E-01  0.5371E+00
     12.691  0.3886E-01  0.5513E+00
     13.056  0.4243E-01  0.5668E+00
     13.422  0.4219E-01  0.5822E+00
     13.787  0.3943E-01  0.5966E+00
     14.153  0.4122E-01  0.6117E+00
     14.518  0.5465E-01  0.6316E+00
     14.883  0.4482E-01  0.6480E+00
     15.249  0.4648E-01  0.6650E+00
     15.614  0.3944E-01  0.6794E+00
     15.980  0.4758E-01  0.6968E+00
     16.345  0.5687E-01  0.7176E+00
     16.710  0.5015E-01  0.7359E+00
     17.076  0.3877E-01  0.7501E+00
     17.441  0.4365E-01  0.7660E+00
     17.807  0.4970E-01  0.7842E+00
     18.172  0.4968E-01  0.8023E+00
     18.537  0.5273E-01  0.8216E+00
     18.903  0.5468E-01  0.8416E+00
     19.268  0.5097E-01  0.8602E+00
     19.634  0.5166E-01  0.8791E+00
     19.999  0.5530E-01  0.8993E+00
     20.364  0.5116E-01  0.9180E+00
     20.730  0.5541E-01  0.9382E+00
     21.095  0.6805E-01  0.9631E+00
     21.461  0.6821E-01  0.9880E+00
     21.826  0.5990E-01  0.1010E+01
     22.191  0.5432E-01  0.1030E+01
     22.557  0.5233E-01  0.1049E+01
     22.922  0.5604E-01  0.1069E+01
     23.288  0.5496E-01  0.1089E+01
     23.653  0.6323E-01  0.1113E+01
     24.018  0.6290E-01  0.1136E+01
     24.384  0.5849E-01  0.1157E+01
     24.749  0.5071E-01  0.1175E+01
     25.115  0.5246E-01  0.1195E+01
     25.480  0.5915E-01  0.1216E+01
     25.845  0.6019E-01  0.1238E+01
     26.211  0.5969E-01  0.1260E+01
     26.576  0.6062E-01  0.1282E+01
     26.941  0.5514E-01  0.1302E+01
     27.307  0.5631E-01  0.1323E+01
     27.672  0.5806E-01  0.1344E+01
     28.038  0.5982E-01  0.1366E+01
     28.403  0.5789E-01  0.1387E+01
     28.768  0.6056E-01  0.1409E+01
     29.134  0.5752E-01  0.1430E+01
     29.499  0.5762E-01  0.1451E+01
     29.865  0.5835E-01  0.1473E+01
     30.230  0.6179E-01  0.1495E+01
     30.595  0.6421E-01  0.1519E+01
     30.961  0.6084E-01  0.1541E+01
     31.326  0.6198E-01  0.1564E+01
     31.692  0.5799E-01  0.1585E+01
     32.057  0.6429E-01  0.1608E+01
     32.422  0.6416E-01  0.1632E+01
     32.788  0.5841E-01  0.1653E+01
     33.153  0.5756E-01  0.1674E+01
     33.519  0.6416E-01  0.1697E+01
     33.884  0.6795E-01  0.1722E+01
     34.249  0.6708E-01  0.1747E+01
     34.615  0.7246E-01  0.1773E+01
     34.980  0.6555E-01  0.1797E+01
     35.346  0.6568E-01  0.1821E+01
     35.711  0.6170E-01  0.1844E+01
     36.076  0.6620E-01  0.1868E+01
     36.442  0.6779E-01  0.1893E+01
     36.807  0.7035E-01  0.1918E+01
     37.173  0.6629E-01  0.1943E+01
     37.538  0.7244E-01  0.1969E+01
     37.903  0.7710E-01  0.1997E+01
     38.269  0.6896E-01  0.2023E+01
     38.634  0.6879E-01  0.2048E+01
     39.000  0.6786E-01  0.2072E+01
     39.365  0.7600E-01  0.2100E+01
     39.730  0.7610E-01  0.2128E+01
     40.096  0.7550E-01  0.2156E+01
     40.461  0.7721E-01  0.2184E+01
     40.827  0.7347E-01  0.2211E+01
     41.192  0.7478E-01  0.2238E+01
     41.557  0.7749E-01  0.2266E+01
     41.923  0.7764E-01  0.2295E+01
     42.288  0.7451E-01  0.2322E+01
     42.654  0.7760E-01  0.2350E+01
     43.019  0.7693E-01  0.2378E+01
     43.384  0.7618E-01  0.2406E+01
     43.750  0.8640E-01  0.2438E+01
     44.115  0.7631E-01  0.2466E+01
     44.481  0.7481E-01  0.2493E+01
     44.846  0.7766E-01  0.2521E+01
     45.211  0.7644E-01  0.2549E+01
     45.577  0.7996E-01  0.2579E+01
     45.942  0.7792E-01  0.2607E+01
     46.308  0.7364E-01  0.2634E+01
     46.673  0.8009E-01  0.2663E+01
     47.038  0.7926E-01  0.2692E+01
     47.404  0.8194E-01  0.2722E+01
     47.769  0.7761E-01  0.2750E+01
     48.135  0.7500E-01  0.2778E+01
     48.500  0.7577E-01  0.2806E+01
     48.865  0.8037E-01  0.2835E+01
     49.231  0.7266E-01  0.2861E+01
     49.596  0.7941E-01  0.2890E+01
     49.962  0.7628E-01  0.2918E+01
     50.327  0.8307E-01  0.2949E+01
     50.692  0.7367E-01  0.2976E+01
     51.058  0.7820E-01  0.3004E+01
     51.423  0.7983E-01  0.3033E+01
     51.789  0.8269E-01  0.3064E+01
     52.154  0.8153E-01  0.3093E+01
     52.519  0.8258E-01  0.3124E+01
     52.885  0.8306E-01  0.3154E+01
     53.250  0.8186E-01  0.3184E+01
     53.616  0.7758E-01  0.3212E+01
     53.981  0.8150E-01  0.3242E+01
     54.346  0.8638E-01  0.3273E+01
     54.712  0.8134E-01  0.3303E+01
     55.077  0.8330E-01  0.3334E+01
     55.443  0.8699E-01  0.3365E+01
     55.808  0.8975E-01  0.3398E+01
     56.173  0.9045E-01  0.3431E+01
     56.539  0.8792E-01  0.3463E+01
     56.904  0.9029E-01  0.3496E+01
     57.270  0.8815E-01  0.3529E+01
     57.635  0.9021E-01  0.3562E+01
     58.000  0.8183E-01  0.3591E+01
     58.366  0.8923E-01  0.3624E+01
     58.731  0.8129E-01  0.3654E+01
     59.097  0.8972E-01  0.3687E+01
     59.462  0.8860E-01  0.3719E+01
     59.827  0.8948E-01  0.3752E+01
     60.193  0.9146E-01  0.3785E+01
     60.558  0.9028E-01  0.3818E+01
     60.924  0.8754E-01  0.3850E+01
     61.289  0.9476E-01  0.3885E+01
     61.654  0.9008E-01  0.3918E+01
     62.020  0.8772E-01  0.3950E+01
     62.385  0.8679E-01  0.3981E+01
     62.751  0.8847E-01  0.4014E+01
     63.116  0.9561E-01  0.4049E+01
     63.481  0.8920E-01  0.4081E+01
     63.847  0.8876E-01  0.4114E+01
     64.212  0.9099E-01  0.4147E+01
     64.578  0.8766E-01  0.4179E+01
     64.943  0.9468E-01  0.4213E+01
     65.308  0.9612E-01  0.4249E+01
     65.674  0.9249E-01  0.4282E+01
     66.039  0.8773E-01  0.4314E+01
     66.405  0.9121E-01  0.4348E+01
     66.770  0.9151E-01  0.4381E+01
     67.135  0.9407E-01  0.4416E+01
     67.501  0.9361E-01  0.4450E+01
     67.866  0.9063E-01  0.4483E+01
     68.232  0.8938E-01  0.4516E+01
     68.597  0.9177E-01  0.4549E+01
     68.962  0.9617E-01  0.4584E+01
     69.328  0.9229E-01  0.4618E+01
     69.693  0.9162E-01  0.4651E+01
     70.058  0.9624E-01  0.4687E+01
     70.424  0.9918E-01  0.4723E+01
     70.789  0.9378E-01  0.4757E+01
     71.155  0.9605E-01  0.4792E+01
     71.520  0.9574E-01  0.4827E+01
     71.885  0.9211E-01  0.4861E+01
     72.251  0.9828E-01  0.4897E+01
     72.616  0.9305E-01  0.4931E+01
     72.982  0.9429E-01  0.4965E+01
     73.347  0.8841E-01  0.4998E+01
     73.712  0.7817E-01  0.5026E+01
     74.078  0.6438E-01  0.5050E+01
     74.443  0.5130E-01  0.5068E+01
     74.809  0.4325E-01  0.5084E+01
     75.174  0.3553E-01  0.5097E+01
     75.539  0.2648E-01  0.5107E+01
     75.905  0.1407E-01  0.5112E+01
     76.270  0.7724E-02  0.5115E+01
     76.636  0.5884E-02  0.5117E+01
     77.001  0.3601E-02  0.5118E+01
     77.366  0.1805E-02  0.5119E+01
     77.732  0.2295E-02  0.5120E+01
     78.097  0.6433E-03  0.5120E+01
     78.463  0.4175E-07  0.5120E+01
     78.828  0.0000E+00  0.5120E+01
     79.193  0.0000E+00  0.5120E+01
     79.559  0.0000E+00  0.5120E+01
     79.924  0.0000E+00  0.5120E+01
     80.290  0.0000E+00  0.5120E+01
     80.655  0.0000E+00  0.5120E+01
     81.020  0.0000E+00  0.5120E+01
     81.386  0.0000E+00  0.5120E+01
     81.751  0.0000E+00  0.5120E+01
     82.117  0.0000E+00  0.5120E+01
     82.482  0.0000E+00  0.5120E+01
     82.847  0.0000E+00  0.5120E+01
