       N       E                     dE             d eps       ncg     rms          rms(c)
DAV:   1     0.407896584450E+02    0.40790E+02   -0.17977E+03409616   0.463E+01
DAV:   2    -0.180741041278E+02   -0.58864E+02   -0.55637E+02493752   0.258E+01
DAV:   3    -0.197096536838E+02   -0.16355E+01   -0.16221E+01481040   0.379E+00
DAV:   4    -0.197122838703E+02   -0.26302E-02   -0.26299E-02472976   0.146E-01
DAV:   5    -0.197122893191E+02   -0.54488E-05   -0.54477E-05468032   0.661E-03    0.551E+00
DAV:   6    -0.187992041667E+02    0.91309E+00   -0.20200E-01495656   0.426E-01    0.291E+00
DAV:   7    -0.184523308149E+02    0.34687E+00   -0.29335E-01471000   0.490E-01    0.501E-01
DAV:   8    -0.184435977077E+02    0.87331E-02   -0.72171E-03481600   0.747E-02    0.984E-02
DAV:   9    -0.184412314202E+02    0.23663E-02   -0.74857E-04482280   0.192E-02    0.627E-02
DAV:  10    -0.184408337086E+02    0.39771E-03   -0.34964E-04476952   0.119E-02    0.309E-02
DAV:  11    -0.184403676387E+02    0.46607E-03   -0.38189E-05475208   0.562E-03    0.185E-02
DAV:  12    -0.184412215522E+02   -0.85391E-03   -0.53533E-05452136   0.386E-03    0.105E-02
DAV:  13    -0.184417834379E+02   -0.56189E-03   -0.33760E-05462128   0.371E-03    0.548E-03
DAV:  14    -0.184418661457E+02   -0.82708E-04   -0.42425E-06468712   0.791E-04    0.378E-03
DAV:  15    -0.184419521508E+02   -0.86005E-04   -0.25556E-06468096   0.894E-04    0.112E-03
DAV:  16    -0.184419555701E+02   -0.34192E-05   -0.85121E-08482152   0.279E-04    0.433E-04
DAV:  17    -0.184419587407E+02   -0.31707E-05   -0.31976E-08460016   0.947E-05    0.525E-05
DAV:  18    -0.184419588904E+02   -0.14970E-06   -0.67256E-10479808   0.141E-05
   1 F= -.18441908E+02 E0= -.18441908E+02  d E =-.184419E+02
