unknown system                          
           1
     1.234207   -2.137714    0.000000
     1.234207    2.137714    0.000000
     0.000000    0.000000   15.522394
   C 
   2
Direct configuration=     1
   0.66666762  0.33333238  0.50000000
   0.33333238  0.66666762  0.50000000
