    3    3   50    1
  0.8822577E+01  0.3123923E-09  0.3055936E-09  0.3225690E-09  0.5000000E-15
  1.000000000000000E-004
  CAR 
 unknown system                          
     10    657     12
 
  0.0000000E+00  0.0000000E+00  0.0000000E+00  0.2441406E-03
    1       -7.142185   1.000000
    2        3.378363   1.000000
    3        3.650725   1.000000
    4        4.076894   1.000000
    5        4.171573   1.000000
    6        7.856253   0.000000
    7        7.905609   0.000000
    8        9.658704   0.000000
    9        9.754517   0.000000
   10       11.491031   0.000000
   11       12.827324   0.000000
   12       15.205657   0.000000
 
  0.6250000E-01  0.0000000E+00  0.0000000E+00  0.9765625E-03
    1       -7.071860   1.000000
    2        3.200461   1.000000
    3        3.602582   1.000000
    4        4.012184   1.000000
    5        4.206546   1.000000
    6        7.871560   0.000000
    7        7.999915   0.000000
    8        9.351671   0.000000
    9        9.460608   0.000000
   10       11.890823   0.000000
   11       12.098191   0.000000
   12       14.708397   0.000000
 
  0.1250000E+00  0.0000000E+00  0.0000000E+00  0.9765625E-03
    1       -6.862478   1.000000
    2        2.635523   1.000000
    3        3.547112   1.000000
    4        3.849444   1.000000
    5        4.294557   1.000000
    6        7.820781   0.000000
    7        8.340121   0.000000
    8        8.787999   0.000000
    9        9.020441   0.000000
   10       12.524515   0.000000
   11       13.066099   0.000000
   12       14.581718   0.000000
 
  0.1875000E+00  0.0000000E+00  0.0000000E+00  0.9765625E-03
    1       -6.518721   1.000000
    2        1.809496   1.000000
    3        3.479409   1.000000
    4        3.650012   1.000000
    5        4.381642   1.000000
    6        7.742698   0.000000
    7        8.343315   0.000000
    8        8.691668   0.000000
    9        8.797760   0.000000
   10       12.974964   0.000000
   11       14.165010   0.000000
   12       14.682607   0.000000
 
  0.2500000E+00  0.0000000E+00  0.0000000E+00  0.9765625E-03
    1       -6.047948   1.000000
    2        0.851025   1.000000
    3        3.384673   1.000000
    4        3.462195   1.000000
    5        4.394618   1.000000
    6        7.652448   0.000000
    7        8.163110   0.000000
    8        8.526226   0.000000
    9        9.248853   0.000000
   10       13.229516   0.000000
   11       13.443672   0.000000
   12       15.796550   0.000000
 
  0.3125000E+00 -0.5551115E-16  0.0000000E+00  0.9765625E-03
    1       -5.459561   1.000000
    2       -0.160193   1.000000
    3        3.273543   1.000000
    4        3.311545   1.000000
    5        4.304172   1.000000
    6        7.564512   0.000000
    7        8.264484   0.000000
    8        8.514189   0.000000
    9        9.562045   0.000000
   10       13.093782   0.000000
   11       13.387801   0.000000
   12       14.674381   0.000000
 
  0.3750000E+00  0.0000000E+00  0.0000000E+00  0.9765625E-03
    1       -4.764528   1.000000
    2       -1.175396   1.000000
    3        3.169614   1.000000
    4        3.206611   1.000000
    5        4.161031   1.000000
    6        7.491869   0.000000
    7        8.454688   0.000000
    8        8.692265   0.000000
    9        9.668113   0.000000
   10       13.043158   0.000000
   11       13.445125   0.000000
   12       14.391912   0.000000
 
  0.4375000E+00 -0.2775558E-16  0.0000000E+00  0.9765625E-03
    1       -3.975147   1.000000
    2       -2.162914   1.000000
    3        3.096579   1.000000
    4        3.146484   1.000000
    5        4.041509   1.000000
    6        7.444358   0.000000
    7        8.546517   0.000000
    8        8.999003   0.000000
    9        9.644750   0.000000
   10       13.153960   0.000000
   11       13.407625   0.000000
   12       14.165915   0.000000
 
  0.5000000E+00  0.0000000E+00  0.0000000E+00  0.4882812E-03
    1       -3.147186   1.000000
    2       -3.057828   1.000000
    3        3.070425   1.000000
    4        3.127080   1.000000
    5        3.996227   1.000000
    6        7.427882   0.000000
    7        8.577729   0.000000
    8        9.141351   0.000000
    9        9.619677   0.000000
   10       13.220942   0.000000
   11       13.362461   0.000000
   12       14.090246   0.000000
 
  0.0000000E+00  0.6250000E-01  0.0000000E+00  0.4882812E-03
    1       -7.068676   1.000000
    2        3.363721   1.000000
    3        3.451366   1.000000
    4        4.009715   1.000000
    5        4.189416   1.000000
    6        7.833734   0.000000
    7        8.047955   0.000000
    8        9.360587   0.000000
    9        9.448533   0.000000
   10       11.888498   0.000000
   11       11.984761   0.000000
   12       13.153745   0.000000
 
  0.6250000E-01  0.6250000E-01  0.0000000E+00  0.9765625E-03
    1       -6.925675   1.000000
    2        2.942966   1.000000
    3        3.444425   1.000000
    4        3.895237   1.000000
    5        4.252305   1.000000
    6        7.806653   0.000000
    7        8.283418   0.000000
    8        8.950790   0.000000
    9        9.103076   0.000000
   10       12.364660   0.000000
   11       12.546252   0.000000
   12       13.674416   0.000000
 
  0.1250000E+00  0.6250000E-01  0.0000000E+00  0.9765625E-03
    1       -6.646046   1.000000
    2        2.211473   1.000000
    3        3.379341   1.000000
    4        3.718130   1.000000
    5        4.383315   1.000000
    6        7.735264   0.000000
    7        8.447378   0.000000
    8        8.696363   0.000000
    9        8.791953   0.000000
   10       12.998886   0.000000
   11       13.258438   0.000000
   12       14.602694   0.000000
 
  0.1875000E+00  0.6250000E-01  0.0000000E+00  0.9765625E-03
    1       -6.235789   1.000000
    2        1.316042   1.000000
    3        3.225330   1.000000
    4        3.534110   1.000000
    5        4.524195   1.000000
    6        7.621868   0.000000
    7        8.076787   0.000000
    8        8.649301   0.000000
    9        9.188977   0.000000
   10       13.310857   0.000000
   11       13.591381   0.000000
   12       14.346100   0.000000
 
  0.2500000E+00  0.6250000E-01  0.0000000E+00  0.9765625E-03
    1       -5.703263   1.000000
    2        0.337465   1.000000
    3        3.020899   1.000000
    4        3.379050   1.000000
    5        4.601300   1.000000
    6        7.482942   0.000000
    7        7.940275   0.000000
    8        8.680597   0.000000
    9        9.632917   0.000000
   10       13.119805   0.000000
   11       13.505292   0.000000
   12       15.136279   0.000000
 
  0.3125000E+00  0.6250000E-01  0.0000000E+00  0.9765625E-03
    1       -5.058651   1.000000
    2       -0.668193   1.000000
    3        2.811598   1.000000
    4        3.268356   1.000000
    5        4.591060   1.000000
    6        7.337579   0.000000
    7        8.033923   0.000000
    8        8.829669   0.000000
    9        9.904150   0.000000
   10       12.942687   0.000000
   11       13.599416   0.000000
   12       16.645400   0.000000
 
  0.3750000E+00  0.6250000E-01  0.0000000E+00  0.9765625E-03
    1       -4.313664   1.000000
    2       -1.663122   1.000000
    3        2.638362   1.000000
    4        3.202986   1.000000
    5        4.539397   1.000000
    6        7.209013   0.000000
    7        8.246363   0.000000
    8        9.009058   0.000000
    9        9.984952   0.000000
   10       13.026937   0.000000
   11       13.590715   0.000000
   12       14.392471   0.000000
 
  0.4375000E+00  0.6250000E-01  0.0000000E+00  0.9765625E-03
    1       -3.482859   1.000000
    2       -2.618964   1.000000
    3        2.530132   1.000000
    4        3.176646   1.000000
    5        4.507432   1.000000
    6        7.123139   0.000000
    7        8.437957   0.000000
    8        9.105351   0.000000
    9        9.985405   0.000000
   10       13.168989   0.000000
   11       13.518238   0.000000
   12       14.288181   0.000000
 
  0.5000000E+00  0.6250000E-01  0.0000000E+00  0.9765625E-03
    1       -3.527101   1.000000
    2       -2.569177   1.000000
    3        2.502348   1.000000
    4        3.182595   1.000000
    5        4.528857   1.000000
    6        7.100840   0.000000
    7        8.517542   0.000000
    8        9.022875   0.000000
    9        9.993994   0.000000
   10       13.192422   0.000000
   11       13.503938   0.000000
   12       14.308640   0.000000
 
 -0.4375000E+00  0.6250000E-01  0.0000000E+00  0.9765625E-03
    1       -4.352454   1.000000
    2       -1.608523   1.000000
    3        2.557801   1.000000
    4        3.219095   1.000000
    5        4.602230   1.000000
    6        7.148593   0.000000
    7        8.443431   0.000000
    8        8.808451   0.000000
    9       10.003652   0.000000
   10       13.094937   0.000000
   11       13.565358   0.000000
   12       14.431633   0.000000
 
 -0.3750000E+00  0.6250000E-01  0.0000000E+00  0.9765625E-03
    1       -5.091715   1.000000
    2       -0.612160   1.000000
    3        2.688001   1.000000
    4        3.290351   1.000000
    5        4.689607   1.000000
    6        7.255690   0.000000
    7        8.234119   0.000000
    8        8.633593   0.000000
    9        9.918679   0.000000
   10       13.047146   0.000000
   11       13.597824   0.000000
   12       14.628533   0.000000
 
 -0.3125000E+00  0.6250000E-01  0.0000000E+00  0.9765625E-03
    1       -5.730607   1.000000
    2        0.387620   1.000000
    3        2.874308   1.000000
    4        3.402042   1.000000
    5        4.722211   1.000000
    6        7.399950   0.000000
    7        8.091651   0.000000
    8        8.546030   0.000000
    9        9.637043   0.000000
   10       13.241165   0.000000
   11       13.538316   0.000000
   12       14.823663   0.000000
 
 -0.2500000E+00  0.6250000E-01  0.0000000E+00  0.9765625E-03
    1       -6.257367   1.000000
    2        1.344467   1.000000
    3        3.091182   1.000000
    4        3.553939   1.000000
    5        4.646475   1.000000
    6        7.556127   0.000000
    7        8.189244   0.000000
    8        8.565787   0.000000
    9        9.183154   0.000000
   10       13.383145   0.000000
   11       14.426768   0.000000
   12       14.987886   0.000000
 
 -0.1875000E+00  0.6250000E-01  0.0000000E+00  0.9765625E-03
    1       -6.661681   1.000000
    2        2.187519   1.000000
    3        3.312617   1.000000
    4        3.732386   1.000000
    5        4.485912   1.000000
    6        7.701486   0.000000
    7        8.535546   0.000000
    8        8.677011   0.000000
    9        8.733601   0.000000
   10       13.033381   0.000000
   11       13.876250   0.000000
   12       14.291922   0.000000
 
 -0.1250000E+00  0.6250000E-01  0.0000000E+00  0.4882812E-03
    1       -6.935167   1.000000
    2        2.823143   1.000000
    3        3.511488   1.000000
    4        3.903232   1.000000
    5        4.315793   1.000000
    6        7.817366   0.000000
    7        8.241275   0.000000
    8        9.013357   0.000000
    9        9.056667   0.000000
   10       12.431874   0.000000
   11       12.898150   0.000000
   12       13.317198   0.000000
 
  0.0000000E+00  0.1250000E+00  0.0000000E+00  0.4882812E-03
    1       -6.849910   1.000000
    2        2.875693   1.000000
    3        3.315043   1.000000
    4        3.843537   1.000000
    5        4.265339   1.000000
    6        7.770266   0.000000
    7        8.426595   0.000000
    8        8.870693   0.000000
    9        8.904254   0.000000
   10       12.252748   0.000000
   11       13.067990   0.000000
   12       13.941743   0.000000
 
  0.6250000E-01  0.1250000E+00  0.0000000E+00  0.9765625E-03
    1       -6.636769   1.000000
    2        2.358011   1.000000
    3        3.210643   1.000000
    4        3.717725   1.000000
    5        4.385529   1.000000
    6        7.697310   0.000000
    7        8.485290   0.000000
    8        8.728332   0.000000
    9        8.755617   0.000000
   10       12.667470   0.000000
   11       13.556487   0.000000
   12       14.206190   0.000000
 
  0.1250000E+00  0.1250000E+00  0.0000000E+00  0.9765625E-03
    1       -6.290730   1.000000
    2        1.642657   1.000000
    3        2.916144   1.000000
    4        3.568797   1.000000
    5        4.639888   1.000000
    6        7.538391   0.000000
    7        8.056289   0.000000
    8        8.670188   0.000000
    9        9.250985   0.000000
   10       13.426123   0.000000
   11       13.622366   0.000000
   12       13.858480   0.000000
 
  0.1875000E+00  0.1250000E+00  0.0000000E+00  0.9765625E-03
    1       -5.818755   1.000000
    2        0.793817   1.000000
    3        2.540216   1.000000
    4        3.440299   1.000000
    5        4.931644   1.000000
    6        7.305072   0.000000
    7        7.726897   0.000000
    8        8.759500   0.000000
    9        9.817936   0.000000
   10       13.116794   0.000000
   11       13.959874   0.000000
   12       14.463190   0.000000
 
  0.2500000E+00  0.1250000E+00  0.0000000E+00  0.9765625E-03
    1       -5.229990   1.000000
    2       -0.136817   1.000000
    3        2.181815   1.000000
    4        3.355064   1.000000
    5        5.154615   1.000000
    6        7.031148   0.000000
    7        7.611774   0.000000
    8        8.921268   0.000000
    9       10.323524   0.000000
   10       12.816479   0.000000
   11       14.037558   0.000000
   12       15.664334   0.000000
 
  0.3125000E+00  0.1250000E+00  0.0000000E+00  0.9765625E-03
    1       -4.535530   1.000000
    2       -1.098965   1.000000
    3        1.892694   1.000000
    4        3.316108   1.000000
    5        5.250783   1.000000
    6        6.763019   0.000000
    7        7.748801   0.000000
    8        9.049994   0.000000
    9       10.629691   0.000000
   10       12.812021   0.000000
   11       13.999353   0.000000
   12       14.861824   0.000000
 
  0.3750000E+00  0.1250000E+00  0.0000000E+00  0.9765625E-03
    1       -3.749292   1.000000
    2       -2.051095   1.000000
    3        1.698080   1.000000
    4        3.311215   1.000000
    5        5.264260   1.000000
    6        6.555059   0.000000
    7        8.035372   0.000000
    8        9.055011   0.000000
    9       10.732971   0.000000
   10       13.003566   0.000000
   11       13.920870   0.000000
   12       14.830725   0.000000
 
  0.4375000E+00  0.1250000E+00  0.0000000E+00  0.9765625E-03
    1       -3.026200   1.000000
    2       -2.823371   1.000000
    3        1.610298   1.000000
    4        3.321270   1.000000
    5        5.270934   1.000000
    6        6.456818   0.000000
    7        8.277692   0.000000
    8        8.932406   0.000000
    9       10.750526   0.000000
   10       13.141220   0.000000
   11       13.870386   0.000000
   12       14.839198   0.000000
 
  0.5000000E+00  0.1250000E+00  0.0000000E+00  0.9765625E-03
    1       -3.831838   1.000000
    2       -1.946611   1.000000
    3        1.634761   1.000000
    4        3.333893   1.000000
    5        5.301214   1.000000
    6        6.494578   0.000000
    7        8.234144   0.000000
    8        8.852465   0.000000
    9       10.731642   0.000000
   10       13.099092   0.000000
   11       13.889447   0.000000
   12       14.874436   0.000000
 
 -0.4375000E+00  0.1250000E+00  0.0000000E+00  0.9765625E-03
    1       -4.606803   1.000000
    2       -0.988669   1.000000
    3        1.773212   1.000000
    4        3.353228   1.000000
    5        5.326014   1.000000
    6        6.659095   0.000000
    7        7.972344   0.000000
    8        8.829790   0.000000
    9       10.614027   0.000000
   10       12.990072   0.000000
   11       13.968488   0.000000
   12       14.909944   0.000000
 
 -0.3750000E+00  0.1250000E+00  0.0000000E+00  0.9765625E-03
    1       -5.289873   1.000000
    2       -0.035308   1.000000
    3        2.026529   1.000000
    4        3.395763   1.000000
    5        5.266614   1.000000
    6        6.911487   0.000000
    7        7.806976   0.000000
    8        8.746505   0.000000
    9       10.292728   0.000000
   10       13.040122   0.000000
   11       14.076703   0.000000
   12       16.044439   0.000000
 
 -0.3125000E+00  0.1250000E+00  0.0000000E+00  0.9765625E-03
    1       -5.867241   1.000000
    2        0.852171   1.000000
    3        2.395425   1.000000
    4        3.475856   1.000000
    5        5.067123   1.000000
    6        7.200728   0.000000
    7        7.889016   0.000000
    8        8.640562   0.000000
    9        9.779488   0.000000
   10       13.338384   0.000000
   11       14.059915   0.000000
   12       15.070863   0.000000
 
 -0.2500000E+00  0.1250000E+00  0.0000000E+00  0.4882812E-03
    1       -6.327608   1.000000
    2        1.602311   1.000000
    3        2.859530   1.000000
    4        3.594382   1.000000
    5        4.775634   1.000000
    6        7.478163   0.000000
    7        8.185723   0.000000
    8        8.600299   0.000000
    9        9.198483   0.000000
   10       13.767119   0.000000
   11       13.837778   0.000000
   12       14.990671   0.000000
 
  0.0000000E+00  0.1875000E+00  0.0000000E+00  0.4882812E-03
    1       -6.491068   1.000000
    2        2.045370   1.000000
    3        3.224728   1.000000
    4        3.645753   1.000000
    5        4.347078   1.000000
    6        7.677042   0.000000
    7        8.384096   0.000000
    8        8.588248   0.000000
    9        8.929014   0.000000
   10       12.567603   0.000000
   11       13.955054   0.000000
   12       14.436888   0.000000
 
  0.6250000E-01  0.1875000E+00  0.0000000E+00  0.9765625E-03
    1       -6.211764   1.000000
    2        1.526611   1.000000
    3        2.957775   1.000000
    4        3.540016   1.000000
    5        4.521872   1.000000
    6        7.551757   0.000000
    7        8.102949   0.000000
    8        8.579599   0.000000
    9        9.298937   0.000000
   10       12.910559   0.000000
   11       13.511713   0.000000
   12       15.110650   0.000000
 
  0.1250000E+00  0.1875000E+00  0.0000000E+00  0.9765625E-03
    1       -5.804235   1.000000
    2        0.926281   1.000000
    3        2.377751   1.000000
    4        3.448276   1.000000
    5        4.918568   1.000000
    6        7.268741   0.000000
    7        7.738337   0.000000
    8        8.734285   0.000000
    9        9.865860   0.000000
   10       13.086155   0.000000
   11       13.573165   0.000000
   12       14.864064   0.000000
 
  0.1875000E+00  0.1875000E+00  0.0000000E+00  0.9765625E-03
    1       -5.276204   1.000000
    2        0.237210   1.000000
    3        1.746892   1.000000
    4        3.403911   1.000000
    5        5.382555   1.000000
    6        6.876507   0.000000
    7        7.430039   0.000000
    8        8.938446   0.000000
    9       10.532939   0.000000
   10       12.746017   0.000000
   11       14.294213   0.000000
   12       14.945251   0.000000
 
  0.2500000E+00  0.1875000E+00  0.0000000E+00  0.9765625E-03
    1       -4.637776   1.000000
    2       -0.562298   1.000000
    3        1.235383   1.000000
    4        3.418396   1.000000
    5        5.781031   1.000000
    6        6.449328   0.000000
    7        7.308898   0.000000
    8        9.065969   0.000000
    9       11.151098   0.000000
   10       12.584449   0.000000
   11       14.429109   0.000000
   12       15.534716   0.000000
 
  0.3125000E+00  0.1875000E+00  0.0000000E+00  0.9765625E-03
    1       -3.902519   1.000000
    2       -1.437816   1.000000
    3        0.892754   1.000000
    4        3.478375   1.000000
    5        5.978340   1.000000
    6        6.068588   0.990888
    7        7.489874   0.000000
    8        9.019828   0.000000
    9       11.506432   0.000000
   10       12.711486   0.000000
   11       14.409250   0.000000
   12       15.588344   0.000000
 
  0.3750000E+00  0.1875000E+00  0.0000000E+00  0.9765625E-03
    1       -3.098828   1.000000
    2       -2.315494   1.000000
    3        0.709212   1.000000
    4        3.543377   1.000000
    5        5.821940   1.000000
    6        6.020236   0.999904
    7        7.852886   0.000000
    8        8.798346   0.000000
    9       11.589721   0.000000
   10       12.978017   0.000000
   11       14.408582   0.000000
   12       15.639109   0.000000
 
  0.4375000E+00  0.1875000E+00  0.0000000E+00  0.9765625E-03
    1       -3.224559   1.000000
    2       -2.172664   1.000000
    3        0.674946   1.000000
    4        3.561616   1.000000
    5        5.786294   1.000000
    6        6.031155   0.999687
    7        8.006978   0.000000
    8        8.646536   0.000000
    9       11.568873   0.000000
   10       13.055076   0.000000
   11       14.392037   0.000000
   12       15.651878   0.000000
 
  0.5000000E+00  0.1875000E+00  0.0000000E+00  0.9765625E-03
    1       -4.016344   1.000000
    2       -1.278896   1.000000
    3        0.796925   1.000000
    4        3.521703   1.000000
    5        5.976542   1.000000
    6        6.016805   0.999935
    7        7.729259   0.000000
    8        8.789742   0.000000
    9       11.434216   0.000000
   10       12.932734   0.000000
   11       14.369821   0.000000
   12       15.620968   0.000000
 
 -0.4375000E+00  0.1875000E+00  0.0000000E+00  0.9765625E-03
    1       -4.734698   1.000000
    2       -0.422044   1.000000
    3        1.109900   1.000000
    4        3.467119   1.000000
    5        5.866189   1.000000
    6        6.331683   0.000000
    7        7.527927   0.000000
    8        8.861115   0.000000
    9       11.056848   0.000000
   10       12.879415   0.000000
   11       14.388586   0.000000
   12       15.540674   0.000000
 
 -0.3750000E+00  0.1875000E+00  0.0000000E+00  0.4882812E-03
    1       -5.356218   1.000000
    2        0.292116   1.000000
    3        1.664252   1.000000
    4        3.444928   1.000000
    5        5.512816   1.000000
    6        6.766456   0.000000
    7        7.612525   0.000000
    8        8.785474   0.000000
    9       10.451667   0.000000
   10       13.034496   0.000000
   11       14.423124   0.000000
   12       15.377676   0.000000
 
  0.0000000E+00  0.2500000E+00  0.0000000E+00  0.4882812E-03
    1       -6.000280   1.000000
    2        1.080584   1.000000
    3        3.096130   1.000000
    4        3.467139   1.000000
    5        4.342837   1.000000
    6        7.569630   0.000000
    7        8.173033   0.000000
    8        8.455694   0.000000
    9        9.408678   0.000000
   10       12.804903   0.000000
   11       13.292238   0.000000
   12       15.077148   0.000000
 
  0.6250000E-01  0.2500000E+00  0.0000000E+00  0.9765625E-03
    1       -5.659929   1.000000
    2        0.569231   1.000000
    3        2.699130   1.000000
    4        3.398101   1.000000
    5        4.567079   1.000000
    6        7.386589   0.000000
    7        7.976634   0.000000
    8        8.613445   0.000000
    9        9.757412   0.000000
   10       13.038949   0.000000
   11       13.091971   0.000000
   12       16.006955   0.000000
 
  0.1250000E+00  0.2500000E+00  0.0000000E+00  0.9765625E-03
    1       -5.196743   1.000000
    2        0.068466   1.000000
    3        1.919400   1.000000
    4        3.377994   1.000000
    5        5.095097   1.000000
    6        6.965634   0.000000
    7        7.660172   0.000000
    8        8.879715   0.000000
    9       10.369362   0.000000
   10       12.807522   0.000000
   11       13.680198   0.000000
   12       14.869915   0.000000
 
  0.1875000E+00  0.2500000E+00  0.0000000E+00  0.9765625E-03
    1       -4.619384   1.000000
    2       -0.425491   1.000000
    3        1.072127   1.000000
    4        3.434289   1.000000
    5        5.717362   1.000000
    6        6.418542   0.000000
    7        7.367191   0.000000
    8        9.044105   0.000000
    9       11.130246   0.000000
   10       12.626307   0.000000
   11       14.344441   0.000000
   12       15.065322   0.000000
 
  0.2500000E+00  0.2500000E+00  0.0000000E+00  0.9765625E-03
    1       -3.940419   1.000000
    2       -0.985468   1.000000
    3        0.357424   1.000000
    4        3.572718   1.000000
    5        5.855761   1.000000
    6        6.341896   0.000000
    7        7.173936   0.000000
    8        8.992163   0.000000
    9       11.904551   0.000000
   10       12.511294   0.000000
   11       14.689598   0.000000
   12       15.808498   0.000000
 
  0.3125000E+00  0.2500000E+00  0.0000000E+00  0.9765625E-03
    1       -3.182977   1.000000
    2       -1.687465   1.000000
    3       -0.075521   1.000000
    4        3.762998   1.000000
    5        5.379413   1.000000
    6        6.723149   0.000000
    7        7.297500   0.000000
    8        8.707501   0.000000
    9       12.340269   0.000000
   10       12.654714   0.000000
   11       14.918767   0.000000
   12       16.424310   0.000000
 
  0.3750000E+00  0.2500000E+00  0.0000000E+00  0.9765625E-03
    1       -2.635693   1.000000
    2       -2.214384   1.000000
    3       -0.232554   1.000000
    4        3.888892   1.000000
    5        5.144827   1.000000
    6        6.755450   0.000000
    7        7.703399   0.000000
    8        8.345435   0.000000
    9       12.321107   0.000000
   10       12.949105   0.000000
   11       15.013625   0.000000
   12       16.303862   0.000000
 
  0.4375000E+00  0.2500000E+00  0.0000000E+00  0.9765625E-03
    1       -3.341415   1.000000
    2       -1.494082   1.000000
    3       -0.136231   1.000000
    4        3.803493   1.000000
    5        5.312733   1.000000
    6        6.720149   0.000000
    7        7.543837   0.000000
    8        8.492065   0.000000
    9       12.203245   0.000000
   10       12.888494   0.000000
   11       14.867426   0.000000
   12       16.338838   0.000000
 
  0.5000000E+00  0.2500000E+00  0.0000000E+00  0.4882812E-03
    1       -4.078078   1.000000
    2       -0.852715   1.000000
    3        0.311327   1.000000
    4        3.616881   1.000000
    5        5.764787   1.000000
    6        6.428380   0.000000
    7        7.372630   0.000000
    8        8.775881   0.000000
    9       11.771209   0.000000
   10       12.803322   0.000000
   11       14.615187   0.000000
   12       16.318740   0.000000
 
  0.0000000E+00  0.3125000E+00  0.0000000E+00  0.4882812E-03
    1       -5.388000   1.000000
    2        0.058428   1.000000
    3        2.950253   1.000000
    4        3.331840   1.000000
    5        4.218466   1.000000
    6        7.464828   0.000000
    7        8.283433   0.000000
    8        8.470264   0.000000
    9        9.692079   0.000000
   10       12.984612   0.000000
   11       12.987893   0.000000
   12       14.805496   0.000000
 
  0.6250000E-01  0.3125000E+00  0.0000000E+00  0.9765625E-03
    1       -4.992629   1.000000
    2       -0.438713   1.000000
    3        2.465706   1.000000
    4        3.303943   1.000000
    5        4.501111   1.000000
    6        7.223367   0.000000
    7        8.117291   0.000000
    8        8.753794   0.000000
    9        9.971631   0.000000
   10       12.940655   0.000000
   11       13.240512   0.000000
   12       14.684101   0.000000
 
  0.1250000E+00  0.3125000E+00  0.0000000E+00  0.9765625E-03
    1       -4.480595   1.000000
    2       -0.875215   1.000000
    3        1.590035   1.000000
    4        3.355731   1.000000
    5        5.124733   1.000000
    6        6.679136   0.000000
    7        7.861723   0.000000
    8        8.987152   0.000000
    9       10.598904   0.000000
   10       12.902462   0.000000
   11       13.790125   0.000000
   12       14.710102   0.000000
 
  0.1875000E+00  0.3125000E+00  0.0000000E+00  0.9765625E-03
    1       -3.862706   1.000000
    2       -1.239823   1.000000
    3        0.646970   1.000000
    4        3.511497   1.000000
    5        5.826129   1.000000
    6        6.018114   0.999924
    7        7.640130   0.000000
    8        8.971351   0.000000
    9       11.379826   0.000000
   10       12.880232   0.000000
   11       14.444338   0.000000
   12       15.090525   0.000000
 
  0.2500000E+00  0.3125000E+00  0.0000000E+00  0.9765625E-03
    1       -3.159406   1.000000
    2       -1.555396   1.000000
    3       -0.231136   1.000000
    4        3.781082   1.000000
    5        5.358672   1.000000
    6        6.541271   0.000000
    7        7.486474   0.000000
    8        8.678359   0.000000
    9       12.124635   0.000000
   10       12.887640   0.000000
   11       15.004128   0.000000
   12       16.125724   0.000000
 
  0.3125000E+00  0.3125000E+00  0.0000000E+00  0.9765625E-03
    1       -2.444406   1.000000
    2       -1.921522   1.000000
    3       -0.836184   1.000000
    4        4.151158   1.000000
    5        4.776233   1.000000
    6        7.193167   0.000000
    7        7.437273   0.000000
    8        8.192471   0.000000
    9       12.586004   0.000000
   10       12.947086   0.000000
   11       15.516789   0.000000
   12       16.071243   0.000000
 
  0.3750000E+00  0.3125000E+00  0.0000000E+00  0.4882812E-03
    1       -2.636363   1.000000
    2       -1.751180   1.000000
    3       -0.823174   1.000000
    4        4.180155   1.000000
    5        4.738718   1.000000
    6        7.313541   0.000000
    7        7.482741   0.000000
    8        8.041482   0.000000
    9       12.646168   0.000000
   10       12.916672   0.000000
   11       15.418730   0.000000
   12       16.225556   0.000000
 
  0.0000000E+00  0.3750000E+00  0.0000000E+00  0.4882812E-03
    1       -4.666446   1.000000
    2       -0.973363   1.000000
    3        2.817710   1.000000
    4        3.244425   1.000000
    5        4.038161   1.000000
    6        7.377922   0.000000
    7        8.562300   0.000000
    8        8.604579   0.000000
    9        9.705977   0.000000
   10       13.061127   0.000000
   11       13.144811   0.000000