unknown system                          
           1
     3.123923    0.000000    0.000000
    -1.561962    2.626599    0.000000
     0.000000    0.000000    3.225690
   Ti   B 
   1   2
Direct configuration=     1
   0.00000000  0.00000000  0.00000000
   0.33333333  0.66666667  0.50000000
   0.66666667  0.33333333  0.50000000
Direct configuration=     2
   0.00000000  0.00000000  0.00000000
   0.33273971  0.66547943  0.50000000
   0.66726029  0.33452057  0.50000000
Direct configuration=     3
   0.00000000  0.00000000  0.00000000
   0.33291415  0.66582830  0.50000000
   0.66708585  0.33417170  0.50000000
