    3    3   50    1
  0.8820649E+01  0.3032935E-09  0.3033191E-09  0.3322812E-09  0.5000000E-15
  1.000000000000000E-004
  CAR 
 unknown system                          
     10   1098     12
 
  0.0000000E+00  0.0000000E+00  0.0000000E+00  0.2441406E-03
    1       -7.205519   1.000000
    2        3.581004   1.000000
    3        3.789681   1.000000
    4        3.793642   1.000000
    5        4.024804   1.000000
    6        7.825747   0.000000
    7        7.831720   0.000000
    8        9.445298   0.000000
    9        9.466819   0.000000
   10       12.002465   0.000000
   11       12.004986   0.000000
   12       13.450659   0.000000
 
  0.6250000E-01  0.1376259E-16  0.0000000E+00  0.9765625E-03
    1       -7.132780   1.000000
    2        3.520723   1.000000
    3        3.575424   1.000000
    4        3.780020   1.000000
    5        4.069741   1.000000
    6        7.805080   0.000000
    7        7.946332   0.000000
    8        9.190209   0.000000
    9        9.232840   0.000000
   10       12.284137   0.000000
   11       12.459965   0.000000
   12       15.417446   0.000000
 
  0.1250000E+00  0.2752518E-16  0.0000000E+00  0.9765625E-03
    1       -6.916199   1.000000
    2        2.961584   1.000000
    3        3.392481   1.000000
    4        3.731718   1.000000
    5        4.189722   1.000000
    6        7.742770   0.000000
    7        8.249665   0.000000
    8        8.679914   0.000000
    9        8.850467   0.000000
   10       12.665279   0.000000
   11       13.482316   0.000000
   12       14.519391   0.000000
 
  0.1875000E+00  0.4128777E-16  0.0000000E+00  0.9765625E-03
    1       -6.560589   1.000000
    2        2.100884   1.000000
    3        3.226724   1.000000
    4        3.634698   1.000000
    5        4.321125   1.000000
    6        7.651313   0.000000
    7        8.211977   0.000000
    8        8.544752   0.000000
    9        8.738211   0.000000
   10       12.983130   0.000000
   11       14.398323   0.000000
   12       14.803523   0.000000
 
  0.2500000E+00  0.5505037E-16  0.0000000E+00  0.9765625E-03
    1       -6.073433   1.000000
    2        1.102740   1.000000
    3        3.073783   1.000000
    4        3.492277   1.000000
    5        4.372260   1.000000
    6        7.547426   0.000000
    7        8.054941   0.000000
    8        8.455058   0.000000
    9        9.132171   0.000000
   10       13.090201   0.000000
   11       13.416308   0.000000
   12       15.539766   0.000000
 
  0.3125000E+00  0.4105060E-16 -0.8673617E-18  0.9765625E-03
    1       -5.464200   1.000000
    2        0.048215   1.000000
    3        2.956151   1.000000
    4        3.328746   1.000000
    5        4.298475   1.000000
    6        7.447107   0.000000
    7        8.216180   0.000000
    8        8.495615   0.000000
    9        9.397922   0.000000
   10       13.031216   0.000000
   11       13.161076   0.000000
   12       14.542930   0.000000
 
  0.3750000E+00  0.8257555E-16  0.0000000E+00  0.9765625E-03
    1       -4.743776   1.000000
    2       -1.011061   1.000000
    3        2.880439   1.000000
    4        3.178645   1.000000
    5        4.155649   1.000000
    6        7.362882   0.000000
    7        8.595693   0.000000
    8        8.612175   0.000000
    9        9.450731   0.000000
   10       12.987408   0.000000
   11       13.144583   0.000000
   12       14.335827   0.000000
 
  0.4375000E+00  0.9633814E-16 -0.8673617E-18  0.9765625E-03
    1       -3.924145   1.000000
    2       -2.041064   1.000000
    3        2.842386   1.000000
    4        3.073099   1.000000
    5        4.032313   1.000000
    6        7.307058   0.000000
    7        8.718960   0.000000
    8        8.996933   0.000000
    9        9.383349   0.000000
   10       13.069420   0.000000
   11       13.116865   0.000000
   12       14.141310   0.000000
 
  0.5000000E+00  0.1101007E-15  0.0000000E+00  0.4882812E-03
    1       -3.033832   1.000000
    2       -3.002554   1.000000
    3        2.831852   1.000000
    4        3.034707   1.000000
    5        3.985292   1.000000
    6        7.287569   0.000000
    7        8.764348   0.000000
    8        9.175180   0.000000
    9        9.336519   0.000000
   10       13.022598   0.000000
   11       13.188893   0.000000
   12       14.064631   0.000000
 
  0.0000000E+00  0.6250000E-01  0.0000000E+00  0.4882812E-03
    1       -7.132726   1.000000
    2        3.511284   1.000000
    3        3.590820   1.000000
    4        3.773825   1.000000
    5        4.069402   1.000000
    6        7.810822   0.000000
    7        7.938045   0.000000
    8        9.184088   0.000000
    9        9.244501   0.000000
   10       12.248818   0.000000
   11       12.432339   0.000000
   12       13.671366   0.000000
 
  0.6250000E-01  0.6250000E-01 -0.4336809E-18  0.9765625E-03
    1       -6.988000   1.000000
    2        3.183977   1.000000
    3        3.429412   1.000000
    4        3.695758   1.000000
    5        4.179870   1.000000
    6        7.752340   0.000000
    7        8.161845   0.000000
    8        8.829170   0.000000
    9        8.942517   0.000000
   10       12.669555   0.000000
   11       13.251248   0.000000
   12       14.468911   0.000000
 
  0.1250000E+00  0.6250000E-01  0.0000000E+00  0.9765625E-03
    1       -6.701833   1.000000
    2        2.493802   1.000000
    3        3.269615   1.000000
    4        3.526637   1.000000
    5        4.376021   1.000000
    6        7.636277   0.000000
    7        8.359452   0.000000
    8        8.509389   0.000000
    9        8.725514   0.000000
   10       13.048835   0.000000
   11       14.187214   0.000000
   12       14.675990   0.000000
 
  0.1875000E+00  0.6250000E-01  0.4336809E-18  0.9765625E-03
    1       -6.280340   1.000000
    2        1.596072   1.000000
    3        3.103948   1.000000
    4        3.307970   1.000000
    5        4.568013   1.000000
    6        7.483368   0.000000
    7        8.009770   0.000000
    8        8.533773   0.000000
    9        9.077030   0.000000
   10       13.239325   0.000000
   11       13.638542   0.000000
   12       15.016718   0.000000
 
  0.2500000E+00  0.6250000E-01 -0.8673617E-18  0.9765625E-03
    1       -5.731985   1.000000
    2        0.590207   1.000000
    3        2.936837   1.000000
    4        3.096950   1.000000
    5        4.664731   1.000000
    6        7.320087   0.000000
    7        7.914275   0.000000
    8        8.611866   0.000000
    9        9.486719   0.000000
   10       13.131392   0.000000
   11       13.314604   0.000000
   12       14.873961   0.000000
 
  0.3125000E+00  0.6250000E-01 -0.8673617E-18  0.9765625E-03
    1       -5.066997   1.000000
    2       -0.455071   1.000000
    3        2.747449   1.000000
    4        2.968470   1.000000
    5        4.637069   1.000000
    6        7.161512   0.000000
    7        8.090709   0.000000
    8        8.786808   0.000000
    9        9.719904   0.000000
   10       12.934860   0.000000
   11       13.314890   0.000000
   12       15.455264   0.000000
 
  0.3750000E+00  0.6250000E-01  0.0000000E+00  0.9765625E-03
    1       -4.296884   1.000000
    2       -1.493770   1.000000
    3        2.584080   1.000000
    4        2.908711   1.000000
    5        4.551421   1.000000
    6        7.028311   0.000000
    7        8.399650   0.000000
    8        8.979938   0.000000
    9        9.762226   0.000000
   10       13.009245   0.000000
   11       13.260959   0.000000
   12       14.393318   0.000000
 
  0.4375000E+00  0.6250000E-01 -0.8673617E-18  0.9765625E-03
    1       -3.434425   1.000000
    2       -2.494521   1.000000
    3        2.493890   1.000000
    4        2.885294   1.000000
    5        4.488439   1.000000
    6        6.951101   0.000000
    7        8.629868   0.000000
    8        9.108781   0.000000
    9        9.735727   0.000000
   10       13.121238   0.000000
   11       13.216212   0.000000
   12       14.282537   0.000000
 
  0.5000000E+00  0.6250000E-01 -0.8673617E-18  0.9765625E-03
    1       -3.434880   1.000000
    2       -2.494108   1.000000
    3        2.494505   1.000000
    4        2.884190   1.000000
    5        4.489579   1.000000
    6        6.951167   0.000000
    7        8.631602   0.000000
    8        9.101948   0.000000
    9        9.741048   0.000000
   10       13.129155   0.000000
   11       13.204501   0.000000
   12       14.285228   0.000000
 
 -0.4375000E+00  0.6250000E-01 -0.8673617E-18  0.9765625E-03
    1       -4.297345   1.000000
    2       -1.493460   1.000000
    3        2.587209   1.000000
    4        2.904251   1.000000
    5        4.554476   1.000000
    6        7.029427   0.000000
    7        8.401785   0.000000
    8        8.965824   0.000000
    9        9.773803   0.000000
   10       13.011484   0.000000
   11       13.250020   0.000000
   12       14.399012   0.000000
 
 -0.3750000E+00  0.6250000E-01 -0.4336809E-18  0.9765625E-03
    1       -5.067447   1.000000
    2       -0.454988   1.000000
    3        2.759000   1.000000
    4        2.955082   1.000000
    5        4.641227   1.000000
    6        7.166757   0.000000
    7        8.087331   0.000000
    8        8.773329   0.000000
    9        9.731918   0.000000
   10       12.930689   0.000000
   11       13.308502   0.000000
   12       14.556543   0.000000
 
 -0.3125000E+00  0.6250000E-01  0.8673617E-18  0.9765625E-03
    1       -5.732394   1.000000
    2        0.589754   1.000000
    3        2.971653   1.000000
    4        3.060285   1.000000
    5        4.669353   1.000000
    6        7.334569   0.000000
    7        7.898979   0.000000
    8        8.601996   0.000000
    9        9.496299   0.000000
   10       13.111229   0.000000
   11       13.328124   0.000000
   12       14.669768   0.000000
 
 -0.2500000E+00  0.6250000E-01  0.0000000E+00  0.9765625E-03
    1       -6.280682   1.000000
    2        1.594342   1.000000
    3        3.139983   1.000000
    4        3.270999   1.000000
    5        4.572778   1.000000
    6        7.504629   0.000000
    7        7.981354   0.000000
    8        8.532621   0.000000
    9        9.082214   0.000000
   10       13.233169   0.000000
   11       13.955827   0.000000
   12       15.004594   0.000000
 
 -0.1875000E+00  0.6250000E-01 -0.2168404E-18  0.9765625E-03
    1       -6.702089   1.000000
    2        2.489263   1.000000
    3        3.298442   1.000000
    4        3.499754   1.000000
    5        4.380510   1.000000
    6        7.651836   0.000000
    7        8.293138   0.000000
    8        8.620456   0.000000
    9        8.660366   0.000000
   10       13.058645   0.000000
   11       13.955993   0.000000
   12       14.839330   0.000000
 
 -0.1250000E+00  0.6250000E-01  0.0000000E+00  0.4882812E-03
    1       -6.988159   1.000000
    2        3.175183   1.000000
    3        3.448098   1.000000
    4        3.684152   1.000000
    5        4.183065   1.000000
    6        7.756396   0.000000
    7        8.161548   0.000000
    8        8.850118   0.000000
    9        8.912264   0.000000
   10       12.676121   0.000000
   11       13.067694   0.000000
   12       14.258231   0.000000
 
  0.0000000E+00  0.1250000E+00  0.0000000E+00  0.4882812E-03
    1       -6.915987   1.000000
    2        2.959654   1.000000
    3        3.403662   1.000000
    4        3.720405   1.000000
    5        4.189702   1.000000
    6        7.752474   0.000000
    7        8.210742   0.000000
    8        8.709704   0.000000
    9        8.858002   0.000000
   10       12.650163   0.000000
   11       13.448350   0.000000
   12       14.583148   0.000000
 
  0.6250000E-01  0.1250000E+00 -0.4336809E-18  0.9765625E-03
    1       -6.701678   1.000000
    2        2.492390   1.000000
    3        3.285400   1.000000
    4        3.510171   1.000000
    5        4.376644   1.000000
    6        7.645183   0.000000
    7        8.292546   0.000000
    8        8.573048   0.000000
    9        8.725024   0.000000
   10       13.037735   0.000000
   11       13.901648   0.000000
   12       14.347666   0.000000
 
  0.1250000E+00  0.1250000E+00 -0.8673617E-18  0.9765625E-03
    1       -6.349575   1.000000
    2        1.856075   1.000000
    3        3.001090   1.000000
    4        3.216433   1.000000
    5        4.692107   1.000000
    6        7.423344   0.000000
    7        7.975407   0.000000
    8        8.575745   0.000000
    9        9.106886   0.000000
   10       13.567944   0.000000
   11       13.804779   0.000000
   12       14.363770   0.000000
 
  0.1875000E+00  0.1250000E+00  0.0000000E+00  0.9765625E-03
    1       -5.866737   1.000000
    2        1.049760   1.000000
    3        2.535196   1.000000
    4        3.096840   1.000000
    5        5.012275   1.000000
    6        7.139093   0.000000
    7        7.676539   0.000000
    8        8.707601   0.000000
    9        9.651987   0.000000
   10       13.186352   0.000000
   11       13.716343   0.000000
   12       15.142095   0.000000
 
  0.2500000E+00  0.1250000E+00  0.0000000E+00  0.9765625E-03
    1       -5.262406   1.000000
    2        0.113178   1.000000
    3        2.130685   1.000000
    4        3.035653   1.000000
    5        5.224203   1.000000
    6        6.836757   0.000000
    7        7.605898   0.000000
    8        8.903032   0.000000
    9       10.137003   0.000000
   10       12.864297   0.000000
   11       13.698953   0.000000
   12       14.921420   0.000000
 
  0.3125000E+00  0.1250000E+00 -0.8673617E-18  0.9765625E-03
    1       -4.547566   1.000000
    2       -0.882987   1.000000
    3        1.832842   1.000000
    4        3.018314   1.000000
    5        5.273379   1.000000
    6        6.553575   0.000000
    7        7.825516   0.000000
    8        9.048193   0.000000
    9       10.422724   0.000000
   10       12.840942   0.000000
   11       13.648008   0.000000
   12       14.910046   0.000000
 
  0.3750000E+00  0.1250000E+00  0.8673617E-18  0.9765625E-03
    1       -3.735042   1.000000
    2       -1.880081   1.000000
    3        1.651397   1.000000
    4        3.025033   1.000000
    5        5.240069   1.000000
    6        6.345579   0.000000
    7        8.189988   0.000000
    8        9.054412   0.000000
    9       10.512576   0.000000
   10       13.005551   0.000000
   11       13.615710   0.000000
   12       14.870899   0.000000
 
  0.4375000E+00  0.1250000E+00  0.0000000E+00  0.9765625E-03
    1       -2.868032   1.000000
    2       -2.811064   1.000000
    3        1.590297   1.000000
    4        3.031274   1.000000
    5        5.219330   1.000000
    6        6.268067   0.002773
    7        8.406364   0.000000
    8        8.987337   0.000000
    9       10.525686   0.000000
   10       13.103171   0.000000
   11       13.604396   0.000000
   12       14.850758   0.000000
 
  0.5000000E+00  0.1250000E+00 -0.1734723E-17  0.9765625E-03
    1       -3.735965   1.000000
    2       -1.879358   1.000000
    3        1.651052   1.000000
    4        3.025296   1.000000
    5        5.242641   1.000000
    6        6.345270   0.000000
    7        8.189833   0.000000
    8        9.049274   0.000000
    9       10.519352   0.000000
   10       13.005734   0.000000
   11       13.604895   0.000000
   12       14.877014   0.000000
 
 -0.4375000E+00  0.1250000E+00 -0.4336809E-18  0.9765625E-03
    1       -4.548478   1.000000
    2       -0.882539   1.000000
    3        1.832940   1.000000
    4        3.018198   1.000000
    5        5.276913   1.000000
    6        6.556857   0.000000
    7        7.821194   0.000000
    8        9.039991   0.000000
    9       10.434744   0.000000
   10       12.836388   0.000000
   11       13.636130   0.000000
   12       14.929913   0.000000
 
 -0.3750000E+00  0.1250000E+00 -0.4336809E-18  0.9765625E-03
    1       -5.263256   1.000000
    2        0.112929   1.000000
    3        2.133215   1.000000
    4        3.033420   1.000000
    5        5.227816   1.000000
    6        6.850215   0.000000
    7        7.590871   0.000000
    8        8.894345   0.000000
    9       10.148580   0.000000
   10       12.855835   0.000000
   11       13.693884   0.000000
   12       14.954132   0.000000
 
 -0.3125000E+00  0.1250000E+00  0.4336809E-18  0.9765625E-03
    1       -5.867480   1.000000
    2        1.047991   1.000000
    3        2.544948   1.000000
    4        3.088434   1.000000
    5        5.016462   1.000000
    6        7.164279   0.000000
    7        7.647889   0.000000
    8        8.701287   0.000000
    9        9.658506   0.000000
   10       13.170232   0.000000
   11       13.735472   0.000000
   12       14.929442   0.000000
 
 -0.2500000E+00  0.1250000E+00  0.0000000E+00  0.4882812E-03
    1       -6.350167   1.000000
    2        1.852401   1.000000
    3        3.036137   1.000000
    4        3.184203   1.000000
    5        4.696757   1.000000
    6        7.445987   0.000000
    7        7.945861   0.000000
    8        8.578638   0.000000
    9        9.103271   0.000000
   10       13.573687   0.000000
   11       14.266650   0.000000
   12       14.469766   0.000000
 
  0.0000000E+00  0.1875000E+00  0.0000000E+00  0.4882812E-03
    1       -6.560132   1.000000
    2        2.100850   1.000000
    3        3.237446   1.000000
    4        3.620041   1.000000
    5        4.321283   1.000000
    6        7.667210   0.000000
    7        8.150669   0.000000
    8        8.577147   0.000000
    9        8.763207   0.000000
   10       12.922830   0.000000
   11       14.153984   0.000000
   12       14.669082   0.000000
 
  0.6250000E-01  0.1875000E+00 -0.8673617E-18  0.9765625E-03
    1       -6.279944   1.000000
    2        1.595947   1.000000
    3        3.133607   1.000000
    4        3.274863   1.000000
    5        4.568611   1.000000
    6        7.499576   0.000000
    7        7.980436   0.000000
    8        8.537280   0.000000
    9        9.095771   0.000000
   10       13.215712   0.000000
   11       13.652297   0.000000
   12       15.243799   0.000000
 
  0.1250000E+00  0.1875000E+00  0.0000000E+00  0.9765625E-03
    1       -5.866503   1.000000
    2        1.050024   1.000000
    3        2.538272   1.000000
    4        3.092183   1.000000
    5        5.011895   1.000000
    6        7.147606   0.000000
    7        7.667324   0.000000
    8        8.705838   0.000000
    9        9.658958   0.000000
   10       13.177885   0.000000
   11       13.714951   0.000000
   12       14.858888   0.000000
 
  0.1875000E+00  0.1875000E+00 -0.8673617E-18  0.9765625E-03
    1       -5.327617   1.000000
    2        0.435102   1.000000
    3        1.781644   1.000000
    4        3.071802   1.000000
    5        5.488475   1.000000
    6        6.702978   0.000000
    7        7.373811   0.000000
    8        8.942612   0.000000
    9       10.322536   0.000000
   10       12.824517   0.000000
   11       14.101558   0.000000
   12       15.525930   0.000000
 
  0.2500000E+00  0.1875000E+00  0.0000000E+00  0.9765625E-03
    1       -4.673380   1.000000
    2       -0.326377   1.000000
    3        1.188853   1.000000
    4        3.113000   1.000000
    5        5.853360   1.000000
    6        6.240013   0.023855
    7        7.300799   0.000000
    8        9.090274   0.000000
    9       10.925903   0.000000
   10       12.656977   0.000000
   11       14.004119   0.000000
   12       15.687484   0.000000
 
  0.3125000E+00  0.1875000E+00 -0.1734723E-17  0.9765625E-03
    1       -3.916586   1.000000
    2       -1.222270   1.000000
    3        0.831729   1.000000
    4        3.194755   1.000000
    5        5.836484   1.000000
    6        5.973375   1.000000
    7        7.579931   0.000000
    8        9.041977   0.000000
    9       11.279533   0.000000
   10       12.764577   0.000000
   11       14.088329   0.000000
   12       15.685989   0.000000
 
  0.3750000E+00  0.1875000E+00 -0.1734723E-17  0.9765625E-03
    1       -3.076168   1.000000
    2       -2.155041   1.000000
    3        0.668008   1.000000
    4        3.265504   1.000000
    5        5.597283   1.000000
    6        5.961273   1.000000
    7        7.990368   0.000000
    8        8.824608   0.000000
    9       11.382829   0.000000
   10       12.980441   0.000000
   11       14.184719   0.000000
   12       16.747882   0.000000
 
  0.4375000E+00  0.1875000E+00 -0.1734723E-17  0.9765625E-03
    1       -3.077464   1.000000
    2       -2.153841   1.000000
    3        0.667661   1.000000
    4        3.266233   1.000000
    5        5.598205   1.000000
    6        5.960978   1.000000
    7        7.990512   0.000000
    8        8.823085   0.000000
    9       11.386207   0.000000
   10       12.979554   0.000000
   11       14.171716   0.000000
   12       15.711861   0.000000
 
  0.5000000E+00  0.1875000E+00 -0.1734723E-17  0.9765625E-03
    1       -3.917930   1.000000
    2       -1.221326   1.000000
    3        0.830949   1.000000
    4        3.196560   1.000000
    5        5.836496   1.000000
    6        5.976742   1.000000
    7        7.577803   0.000000
    8        9.038131   0.000000
    9       11.290644   0.000000
   10       12.758602   0.000000
   11       14.078277   0.000000
   12       15.705855   0.000000
 
 -0.4375000E+00  0.1875000E+00  0.4336809E-18  0.9765625E-03
    1       -4.674663   1.000000
    2       -0.326152   1.000000
    3        1.188677   1.000000
    4        3.114870   1.000000
    5        5.851257   1.000000
    6        6.252709   0.009666
    7        7.291605   0.000000
    8        9.084423   0.000000
    9       10.939692   0.000000
   10       12.647723   0.000000
   11       13.993706   0.000000
   12       15.641100   0.000000
 
 -0.3750000E+00  0.1875000E+00  0.0000000E+00  0.4882812E-03
    1       -5.328782   1.000000
    2        0.433922   1.000000
    3        1.783848   1.000000
    4        3.072222   1.000000
    5        5.491363   1.000000
    6        6.719035   0.000000
    7        7.356151   0.000000
    8        8.936360   0.000000
    9       10.330579   0.000000
   10       12.817138   0.000000
   11       13.954266   0.000000
   12       15.522978   0.000000
 
  0.0000000E+00  0.2500000E+00  0.0000000E+00  0.4882812E-03
    1       -6.072665   1.000000
    2        1.103536   1.000000
    3        3.083674   1.000000
    4        3.476736   1.000000
    5        4.372102   1.000000
    6        7.566934   0.000000
    7        8.015240   0.000000
    8        8.468986   0.000000
    9        9.151508   0.000000
   10       13.068258   0.000000
   11       13.421357   0.000000
   12       16.112266   0.000000
 
  0.6250000E-01  0.2500000E+00 -0.8673617E-18  0.9765625E-03
    1       -5.731292   1.000000
    2        0.591087   1.000000
    3        2.974314   1.000000
    4        3.054566   1.000000
    5        4.664733   1.000000
    6        7.339114   0.000000
    7        7.891738   0.000000
    8        8.608826   0.000000
    9        9.503328   0.000000
   10       13.103311   0.000000
   11       13.319953   0.000000
   12       14.675518   0.000000
 
  0.1250000E+00  0.2500000E+00 -0.8673617E-18  0.9765625E-03
    1       -5.261886   1.000000
    2        0.114284   1.000000
    3        2.131385   1.000000
    4        3.032018   1.000000
    5        5.222655   1.000000
    6        6.849671   0.000000
    7        7.593874   0.000000
    8        8.900286   0.000000
    9       10.145669   0.000000
   10       12.855044   0.000000
   11       13.692434   0.000000
   12       14.944846   0.000000
 
  0.1875000E+00  0.2500000E+00  0.0000000E+00  0.9765625E-03
    1       -4.673099   1.000000
    2       -0.325403   1.000000
    3        1.188046   1.000000
    4        3.112203   1.000000
    5        5.847317   1.000000
    6        6.250879   0.011089
    7        7.295408   0.000000
    8        9.089666   0.000000
    9       10.928999   0.000000
   10       12.652691   0.000000
   11       14.004250   0.000000
   12       15.643722   0.000000
 
  0.2500000E+00  0.2500000E+00 -0.1734723E-17  0.9765625E-03
    1       -3.977091   1.000000
    2       -0.803644   1.000000
    3        0.356300   1.000000
    4        3.278105   1.000000
    5        5.638460   1.000000
    6        6.455428   0.000000
    7        7.122142   0.000000
    8        9.040076   0.000000
    9       11.690862   0.000000
   10       12.553252   0.000000
   11       14.315748   0.000000
   12       16.743462   0.000000
 
  0.3125000E+00  0.2500000E+00 -0.8673617E-18  0.9765625E-03
    1       -3.193117   1.000000
    2       -1.482477   1.000000
    3       -0.132864   1.000000
    4        3.491788   1.000000
    5        5.138472   1.000000
    6        6.678095   0.000000
    7        7.398709   0.000000
    8        8.745823   0.000000
    9       12.114045   0.000000
   10       12.712548   0.000000
   11       14.672468   0.000000
   12       16.445484   0.000000
 
  0.3750000E+00  0.2500000E+00  0.0000000E+00  0.9765625E-03
    1       -2.461269   1.000000
    2       -2.207634   1.000000
    3       -0.270198   1.000000
    4        3.613442   1.000000
    5        4.917806   1.000000
    6        6.667472   0.000000
    7        7.754342   0.000000
    8        8.462904   0.000000
    9       12.170002   0.000000
   10       12.908090   0.000000
   11       14.861994   0.000000
   12       16.362506   0.000000
 
  0.4375000E+00  0.2500000E+00  0.0000000E+00  0.9765625E-03
    1       -3.194796   1.000000
    2       -1.481018   1.000000
    3       -0.133596   1.000000
    4        3.493971   1.000000
    5        5.137699   1.000000
    6        6.679728   0.000000
    7        7.398456   0.000000
    8        8.744181   0.000000
    9       12.124593   0.000000
   10       12.706429   0.000000
   11       14.669926   0.000000
   12       16.442603   0.000000
 
  0.5000000E+00  0.2500000E+00  0.0000000E+00  0.4882812E-03
    1       -3.978768   1.000000
    2       -0.803154   1.000000
    3        0.355853   1.000000
    4        3.281048   1.000000
    5        5.637678   1.000000
    6        6.461126   0.000000
    7        7.118534   0.000000
    8        9.036772   0.000000
    9       11.708167   0.000000
   10       12.541714   0.000000
   11       14.309504   0.000000
   12       16.468586   0.000000
 
  0.0000000E+00  0.3125000E+00 -0.1734723E-17  0.4882812E-03
    1       -5.463089   1.000000
    2        0.049512   1.000000
    3        2.964045   1.000000
    4        3.314793   1.000000
    5        4.297698   1.000000
    6        7.465684   0.000000
    7        8.184089   0.000000
    8        8.505816   0.000000
    9        9.411077   0.000000
   10       13.006486   0.000000
   11       13.164176   0.000000
   12       14.556340   0.000000
 
  0.6250000E-01  0.3125000E+00 -0.8673617E-18  0.9765625E-03
    1       -5.065983   1.000000
    2       -0.453559   1.000000
    3        2.759674   1.000000
    4        2.950962   1.000000
    5        4.636573   1.000000
    6        7.177440   0.000000
    7        8.075994   0.000000
    8        8.779793   0.000000
    9        9.732086   0.000000
   10       12.919392   0.000000
   11       13.307534   0.000000
   12       14.560387   0.000000
 
  0.1250000E+00  0.3125000E+00 -0.1734723E-17  0.9765625E-03
    1       -4.546744   1.000000
    2       -0.881281   1.000000
    3        1.831836   1.000000
    4        3.015728   1.000000
    5        5.271563   1.000000
    6        6.563292   0.000000
    7        7.817152   0.000000
    8        9.045602   0.000000
    9       10.427704   0.000000
   10       12.831615   0.000000
   11       13.642200   0.000000
   12       14.912880   0.000000
 
  0.1875000E+00  0.3125000E+00 -0.8673617E-18  0.9765625E-03
    1       -3.916021   1.000000
    2       -1.220571   1.000000
    3        0.830205   1.000000
    4        3.193622   1.000000
    5        5.827655   1.000000
    6        5.985322   1.000000
    7        7.575889   0.000000
    8        9.041196   0.000000
    9       11.281363   0.000000
   10       12.758614   0.000000
   11       14.084726   0.000000
   12       15.800702   0.000000
 
  0.2500000E+00  0.3125000E+00 -0.3469447E-17  0.9765625E-03
    1       -3.192811   1.000000
    2       -1.481171   1.000000
    3       -0.134012   1.000000
    4        3.491109   1.000000
    5        5.138952   1.000000
    6        6.678588   0.000000
    7        7.397404   0.000000
    8        8.745362   0.000000
    9       12.116964   0.000000
   10       12.706556   0.000000
   11       14.679484   0.000000
   12       17.037525   0.000000
 
  0.3125000E+00  0.3125000E+00 -0.1734723E-17  0.9765625E-03
    1       -2.429614   1.000000
    2       -1.774704   1.000000
    3       -0.861973   1.000000
    4        3.890958   1.000000
    5        4.524783   1.000000
    6        7.266356   0.000000
    7        7.351810   0.000000
    8        8.290877   0.000000
    9       12.669284   0.000000
   10       12.704628   0.000000
   11       15.332373   0.000000
   12       16.168282   0.000000
 
  0.3750000E+00  0.3125000E+00  0.0000000E+00  0.4882812E-03
    1       -2.431586   1.000000
    2       -1.773202   1.000000
    3       -0.862039   1.000000
    4        3.893125   1.000000
    5        4.523183   1.000000
    6        7.265950   0.000000
    7        7.353281   0.000000
    8        8.290360   0.000000
    9       12.657917   0.000000
   10       12.719467   0.000000
   11       15.346396   0.000000
   12       16.226654   0.000000
 
  0.0000000E+00  0.3750000E+00  0.0000000E+00  0.4882812E-03
    1       -4.742337   1.000000
    2       -1.009424   1.000000
    3        2.884714   1.000000
    4        3.168666   1.000000
    5        4.154456   1.000000
    6        7.379914   0.000000
    7        8.569826   0.000000
    8        8.616487   0.000000
    9        9.457938   0.000000
   10       12.969493   0.000000
   11       13.145983   0.000000