<?xml version="1.0" encoding="ISO-8859-1"?>
<modeling>
 <generator>
  <i name="program" type="string">vasp </i>
  <i name="version" type="string">5.4.4.18Apr17-6-g9f103f2a35  </i>
  <i name="subversion" type="string">(build Nov 22 2017 20:28:56) complex            parallel </i>
  <i name="platform" type="string">LinuxIFC </i>
  <i name="date" type="string">2019 09 11 </i>
  <i name="time" type="string">22:47:48 </i>
 </generator>
 <incar>
  <i type="int" name="ISTART">     0</i>
  <i type="string" name="PREC">accurate</i>
  <i type="int" name="IALGO">    48</i>
  <i type="string" name="ALGO"> Very Fast</i>
  <i type="int" name="NSIM">     4</i>
  <i type="int" name="IBRION">     1</i>
  <i name="EDIFF">      0.00000100</i>
  <i type="int" name="NSW">    50</i>
  <i type="int" name="ISIF">     2</i>
  <i type="int" name="ISYM">     2</i>
  <i name="ENCUT">    600.00000000</i>
  <i name="POTIM">      0.50000000</i>
  <i type="logical" name="LPLANE"> T  </i>
  <i type="int" name="ISMEAR">     0</i>
  <i name="SIGMA">      0.05000000</i>
  <i type="logical" name="LWAVE"> F  </i>
  <i type="logical" name="LCHARG"> F  </i>
  <v type="int" name="KPOINT_BSE">    -1     0     0     0</v>
 </incar>
 <structure name="primitive_cell" >
  <crystal>
   <varray name="basis" >
    <v>       3.03293523       0.00000000       0.00000000 </v>
    <v>      -1.51646762       2.62659896       0.03939898 </v>
    <v>       0.00000000       0.04838534       3.32246020 </v>
   </varray>
   <i name="volume">     26.46194791 </i>
   <varray name="rec_basis" >
    <v>       0.32971360       0.19040183      -0.00277284 </v>
    <v>       0.00000000       0.38080366      -0.00554568 </v>
    <v>       0.00000000      -0.00451571       0.30104755 </v>
   </varray>
  </crystal>
  <varray name="positions" >
   <v>       0.00000000       0.00000000       0.00000000 </v>
   <v>       0.33333333      -0.33333333      -0.50000000 </v>
   <v>      -0.33333333       0.33333333      -0.50000000 </v>
  </varray>
 </structure>
 <varray name="primitive_index" >
  <v type="int" >        1 </v>
  <v type="int" >        2 </v>
  <v type="int" >        3 </v>
 </varray>
 <kpoints>
  <generation param="Gamma">
   <v type="int" name="divisions">      16       16       16 </v>
   <v name="usershift">      0.00000000       0.00000000       0.00000000 </v>
   <v name="genvec1">      0.06250000       0.00000000       0.00000000 </v>
   <v name="genvec2">      0.00000000       0.06250000       0.00000000 </v>
   <v name="genvec3">      0.00000000      -0.00000000       0.06250000 </v>
   <v name="shift">      0.00000000       0.00000000       0.00000000 </v>
  </generation>
  <varray name="kpointlist" >
   <v>       0.00000000       0.00000000       0.00000000 </v>
   <v>       0.06250000       0.00000000       0.00000000 </v>
   <v>       0.12500000       0.00000000       0.00000000 </v>
   <v>       0.18750000       0.00000000       0.00000000 </v>
   <v>       0.25000000       0.00000000       0.00000000 </v>
   <v>       0.31250000       0.00000000      -0.00000000 </v>
   <v>       0.37500000       0.00000000       0.00000000 </v>
   <v>       0.43750000       0.00000000      -0.00000000 </v>
   <v>       0.50000000       0.00000000       0.00000000 </v>
   <v>       0.00000000       0.06250000       0.00000000 </v>
   <v>       0.06250000       0.06250000      -0.00000000 </v>
   <v>       0.12500000       0.06250000       0.00000000 </v>
   <v>       0.18750000       0.06250000       0.00000000 </v>
   <v>       0.25000000       0.06250000      -0.00000000 </v>
   <v>       0.31250000       0.06250000      -0.00000000 </v>
   <v>       0.37500000       0.06250000       0.00000000 </v>
   <v>       0.43750000       0.06250000      -0.00000000 </v>
   <v>       0.50000000       0.06250000      -0.00000000 </v>
   <v>      -0.43750000       0.06250000      -0.00000000 </v>
   <v>      -0.37500000       0.06250000      -0.00000000 </v>
   <v>      -0.31250000       0.06250000       0.00000000 </v>
   <v>      -0.25000000       0.06250000       0.00000000 </v>
   <v>      -0.18750000       0.06250000      -0.00000000 </v>
   <v>      -0.12500000       0.06250000       0.00000000 </v>
   <v>       0.00000000       0.12500000       0.00000000 </v>
   <v>       0.06250000       0.12500000      -0.00000000 </v>
   <v>       0.12500000       0.12500000      -0.00000000 </v>
   <v>       0.18750000       0.12500000       0.00000000 </v>
   <v>       0.25000000       0.12500000       0.00000000 </v>
   <v>       0.31250000       0.12500000      -0.00000000 </v>
   <v>       0.37500000       0.12500000       0.00000000 </v>
   <v>       0.43750000       0.12500000       0.00000000 </v>
   <v>       0.50000000       0.12500000      -0.00000000 </v>
   <v>      -0.43750000       0.12500000      -0.00000000 </v>
   <v>      -0.37500000       0.12500000      -0.00000000 </v>
   <v>      -0.31250000       0.12500000       0.00000000 </v>
   <v>      -0.25000000       0.12500000       0.00000000 </v>
   <v>       0.00000000       0.18750000       0.00000000 </v>
   <v>       0.06250000       0.18750000      -0.00000000 </v>
   <v>       0.12500000       0.18750000       0.00000000 </v>
   <v>       0.18750000       0.18750000      -0.00000000 </v>
   <v>       0.25000000       0.18750000       0.00000000 </v>
   <v>       0.31250000       0.18750000      -0.00000000 </v>
   <v>       0.37500000       0.18750000      -0.00000000 </v>
   <v>       0.43750000       0.18750000      -0.00000000 </v>
   <v>       0.50000000       0.18750000      -0.00000000 </v>
   <v>      -0.43750000       0.18750000       0.00000000 </v>
   <v>      -0.37500000       0.18750000       0.00000000 </v>
   <v>       0.00000000       0.25000000       0.00000000 </v>
   <v>       0.06250000       0.25000000      -0.00000000 </v>
   <v>       0.12500000       0.25000000      -0.00000000 </v>
   <v>       0.18750000       0.25000000       0.00000000 </v>
   <v>       0.25000000       0.25000000      -0.00000000 </v>
   <v>       0.31250000       0.25000000      -0.00000000 </v>
   <v>       0.37500000       0.25000000       0.00000000 </v>
   <v>       0.43750000       0.25000000       0.00000000 </v>
   <v>       0.50000000       0.25000000       0.00000000 </v>
   <v>       0.00000000       0.31250000      -0.00000000 </v>
   <v>       0.06250000       0.31250000      -0.00000000 </v>
   <v>       0.12500000       0.31250000      -0.00000000 </v>
   <v>       0.18750000       0.31250000      -0.00000000 </v>
   <v>       0.25000000       0.31250000      -0.00000000 </v>
   <v>       0.31250000       0.31250000      -0.00000000 </v>
   <v>       0.37500000       0.31250000       0.00000000 </v>
   <v>       0.00000000       0.37500000       0.00000000 </v>
   <v>       0.06250000       0.37500000       0.00000000 </v>
   <v>       0.12500000       0.37500000      -0.00000000 </v>
   <v>       0.18750000       0.37500000       0.00000000 </v>
   <v>       0.25000000       0.37500000       0.00000000 </v>
   <v>       0.00000000       0.43750000      -0.00000000 </v>
   <v>       0.06250000       0.43750000       0.00000000 </v>
   <v>       0.12500000       0.43750000      -0.00000000 </v>
   <v>       0.00000000       0.50000000       0.00000000 </v>
   <v>       0.00000000      -0.00000000       0.06250000 </v>
   <v>       0.06250000       0.00000000       0.06250000 </v>
   <v>       0.12500000       0.00000000       0.06250000 </v>
   <v>       0.18750000       0.00000000       0.06250000 </v>
   <v>       0.25000000       0.00000000       0.06250000 </v>
   <v>       0.31250000       0.00000000       0.06250000 </v>
   <v>       0.37500000       0.00000000       0.06250000 </v>
   <v>       0.43750000       0.00000000       0.06250000 </v>
   <v>       0.50000000       0.00000000       0.06250000 </v>
   <v>      -0.43750000      -0.00000000       0.06250000 </v>
   <v>      -0.37500000      -0.00000000       0.06250000 </v>
   <v>      -0.31250000      -0.00000000       0.06250000 </v>
   <v>      -0.25000000      -0.00000000       0.06250000 </v>
   <v>      -0.18750000      -0.00000000       0.06250000 </v>
   <v>      -0.12500000      -0.00000000       0.06250000 </v>
   <v>      -0.06250000      -0.00000000       0.06250000 </v>
   <v>       0.00000000       0.06250000       0.06250000 </v>
   <v>       0.06250000       0.06250000       0.06250000 </v>
   <v>       0.12500000       0.06250000       0.06250000 </v>
   <v>       0.18750000       0.06250000       0.06250000 </v>
   <v>       0.25000000       0.06250000       0.06250000 </v>
   <v>       0.31250000       0.06250000       0.06250000 </v>
   <v>       0.37500000       0.06250000       0.06250000 </v>
   <v>       0.43750000       0.06250000       0.06250000 </v>
   <v>       0.50000000       0.06250000       0.06250000 </v>
   <v>      -0.43750000       0.06250000       0.06250000 </v>
   <v>      -0.37500000       0.06250000       0.06250000 </v>
   <v>      -0.31250000       0.06250000       0.06250000 </v>
   <v>      -0.25000000       0.06250000       0.06250000 </v>
   <v>      -0.18750000       0.06250000       0.06250000 </v>
   <v>      -0.12500000       0.06250000       0.06250000 </v>
   <v>       0.00000000       0.12500000       0.06250000 </v>
   <v>       0.06250000       0.12500000       0.06250000 </v>
   <v>       0.12500000       0.12500000       0.06250000 </v>
   <v>       0.18750000       0.12500000       0.06250000 </v>
   <v>       0.25000000       0.12500000       0.06250000 </v>
   <v>       0.31250000       0.12500000       0.06250000 </v>
   <v>       0.37500000       0.12500000       0.06250000 </v>
   <v>       0.43750000       0.12500000       0.06250000 </v>
   <v>       0.50000000       0.12500000       0.06250000 </v>
   <v>      -0.43750000       0.12500000       0.06250000 </v>
   <v>      -0.37500000       0.12500000       0.06250000 </v>
   <v>      -0.31250000       0.12500000       0.06250000 </v>
   <v>      -0.25000000       0.12500000       0.06250000 </v>
   <v>      -0.18750000       0.12500000       0.06250000 </v>
   <v>       0.00000000       0.18750000       0.06250000 </v>
   <v>       0.06250000       0.18750000       0.06250000 </v>
   <v>       0.12500000       0.18750000       0.06250000 </v>
   <v>       0.18750000       0.18750000       0.06250000 </v>
   <v>       0.25000000       0.18750000       0.06250000 </v>
   <v>       0.31250000       0.18750000       0.06250000 </v>
   <v>       0.37500000       0.18750000       0.06250000 </v>
   <v>       0.43750000       0.18750000       0.06250000 </v>
   <v>       0.50000000       0.18750000       0.06250000 </v>
   <v>      -0.43750000       0.18750000       0.06250000 </v>
   <v>      -0.37500000       0.18750000       0.06250000 </v>
   <v>      -0.31250000       0.18750000       0.06250000 </v>
   <v>      -0.25000000       0.18750000       0.06250000 </v>
   <v>       0.00000000       0.25000000       0.06250000 </v>
   <v>       0.06250000       0.25000000       0.06250000 </v>
   <v>       0.12500000       0.25000000       0.06250000 </v>
   <v>       0.18750000       0.25000000       0.06250000 </v>
   <v>       0.25000000       0.25000000       0.06250000 </v>
   <v>       0.31250000       0.25000000       0.06250000 </v>
   <v>       0.37500000       0.25000000       0.06250000 </v>
   <v>       0.43750000       0.25000000       0.06250000 </v>
   <v>       0.50000000       0.25000000       0.06250000 </v>
   <v>      -0.43750000       0.25000000       0.06250000 </v>
   <v>      -0.37500000       0.25000000       0.06250000 </v>
   <v>      -0.31250000       0.25000000       0.06250000 </v>
   <v>       0.00000000       0.31250000       0.06250000 </v>
   <v>       0.06250000       0.31250000       0.06250000 </v>
   <v>       0.12500000       0.31250000       0.06250000 </v>
   <v>       0.18750000       0.31250000       0.06250000 </v>
   <v>       0.25000000       0.31250000       0.06250000 </v>
   <v>       0.31250000       0.31250000       0.06250000 </v>
   <v>       0.37500000       0.31250000       0.06250000 </v>
   <v>       0.43750000       0.31250000       0.06250000 </v>
   <v>       0.50000000       0.31250000       0.06250000 </v>
   <v>      -0.43750000       0.31250000       0.06250000 </v>
   <v>      -0.37500000       0.31250000       0.06250000 </v>
   <v>       0.00000000       0.37500000       0.06250000 </v>
   <v>       0.06250000       0.37500000       0.06250000 </v>
   <v>       0.12500000       0.37500000       0.06250000 </v>
   <v>       0.18750000       0.37500000       0.06250000 </v>
   <v>       0.25000000       0.37500000       0.06250000 </v>
   <v>       0.31250000       0.37500000       0.06250000 </v>
   <v>       0.37500000       0.37500000       0.06250000 </v>
   <v>       0.43750000       0.37500000       0.06250000 </v>
   <v>       0.50000000       0.37500000       0.06250000 </v>
   <v>      -0.43750000       0.37500000       0.06250000 </v>
   <v>       0.00000000       0.43750000       0.06250000 </v>
   <v>       0.06250000       0.43750000       0.06250000 </v>
   <v>       0.12500000       0.43750000       0.06250000 </v>
   <v>       0.18750000       0.43750000       0.06250000 </v>
   <v>       0.25000000       0.43750000       0.06250000 </v>
   <v>       0.31250000       0.43750000       0.06250000 </v>
   <v>       0.37500000       0.43750000       0.06250000 </v>
   <v>       0.43750000       0.43750000       0.06250000 </v>
   <v>       0.50000000       0.43750000       0.06250000 </v>
   <v>       0.00000000       0.50000000       0.06250000 </v>
   <v>       0.06250000       0.50000000       0.06250000 </v>
   <v>       0.12500000       0.50000000       0.06250000 </v>
   <v>       0.18750000       0.50000000       0.06250000 </v>
   <v>       0.25000000       0.50000000       0.06250000 </v>
   <v>       0.31250000       0.50000000       0.06250000 </v>
   <v>       0.37500000       0.50000000       0.06250000 </v>
   <v>       0.43750000       0.50000000       0.06250000 </v>
   <v>       0.00000000      -0.43750000       0.06250000 </v>
   <v>       0.06250000      -0.43750000       0.06250000 </v>
   <v>       0.12500000      -0.43750000       0.06250000 </v>
   <v>       0.18750000      -0.43750000       0.06250000 </v>
   <v>       0.25000000      -0.43750000       0.06250000 </v>
   <v>       0.31250000      -0.43750000       0.06250000 </v>
   <v>       0.37500000      -0.43750000       0.06250000 </v>
   <v>       0.00000000      -0.37500000       0.06250000 </v>
   <v>       0.06250000      -0.37500000       0.06250000 </v>
   <v>       0.12500000      -0.37500000       0.06250000 </v>
   <v>       0.18750000      -0.37500000       0.06250000 </v>
   <v>       0.25000000      -0.37500000       0.06250000 </v>
   <v>       0.31250000      -0.37500000       0.06250000 </v>
   <v>       0.00000000      -0.31250000       0.06250000 </v>
   <v>       0.06250000      -0.31250000       0.06250000 </v>
   <v>       0.12500000      -0.31250000       0.06250000 </v>
   <v>       0.18750000      -0.31250000       0.06250000 </v>
   <v>       0.25000000      -0.31250000       0.06250000 </v>
   <v>       0.00000000      -0.25000000       0.06250000 </v>
   <v>       0.06250000      -0.25000000       0.06250000 </v>
   <v>       0.12500000      -0.25000000       0.06250000 </v>
   <v>       0.18750000      -0.25000000       0.06250000 </v>
   <v>       0.00000000      -0.18750000       0.06250000 </v>
   <v>       0.06250000      -0.18750000       0.06250000 </v>
   <v>       0.12500000      -0.18750000       0.06250000 </v>
   <v>       0.00000000      -0.12500000       0.06250000 </v>
   <v>       0.06250000      -0.12500000       0.06250000 </v>
   <v>       0.00000000      -0.06250000       0.06250000 </v>
   <v>       0.00000000      -0.00000000       0.12500000 </v>
   <v>       0.06250000       0.00000000       0.12500000 </v>
   <v>       0.12500000       0.00000000       0.12500000 </v>
   <v>       0.18750000       0.00000000       0.12500000 </v>
   <v>       0.25000000       0.00000000       0.12500000 </v>
   <v>       0.31250000       0.00000000       0.12500000 </v>
   <v>       0.37500000       0.00000000       0.12500000 </v>
   <v>       0.43750000       0.00000000       0.12500000 </v>
   <v>       0.50000000       0.00000000       0.12500000 </v>
   <v>      -0.43750000      -0.00000000       0.12500000 </v>
   <v>      -0.37500000      -0.00000000       0.12500000 </v>
   <v>      -0.31250000      -0.00000000       0.12500000 </v>
   <v>      -0.25000000      -0.00000000       0.12500000 </v>
   <v>      -0.18750000      -0.00000000       0.12500000 </v>
   <v>      -0.12500000      -0.00000000       0.12500000 </v>
   <v>      -0.06250000      -0.00000000       0.12500000 </v>
   <v>       0.00000000       0.06250000       0.12500000 </v>
   <v>       0.06250000       0.06250000       0.12500000 </v>
   <v>       0.12500000       0.06250000       0.12500000 </v>
   <v>       0.18750000       0.06250000       0.12500000 </v>
   <v>       0.25000000       0.06250000       0.12500000 </v>
   <v>       0.31250000       0.06250000       0.12500000 </v>
   <v>       0.37500000       0.06250000       0.12500000 </v>
   <v>       0.43750000       0.06250000       0.12500000 </v>
   <v>       0.50000000       0.06250000       0.12500000 </v>
   <v>      -0.43750000       0.06250000       0.12500000 </v>
   <v>      -0.37500000       0.06250000       0.12500000 </v>
   <v>      -0.31250000       0.06250000       0.12500000 </v>
   <v>      -0.25000000       0.06250000       0.12500000 </v>
   <v>      -0.18750000       0.06250000       0.12500000 </v>
   <v>      -0.12500000       0.06250000       0.12500000 </v>
   <v>       0.00000000       0.12500000       0.12500000 </v>
   <v>       0.06250000       0.12500000       0.12500000 </v>
   <v>       0.12500000       0.12500000       0.12500000 </v>
   <v>       0.18750000       0.12500000       0.12500000 </v>
   <v>       0.25000000       0.12500000       0.12500000 </v>
   <v>       0.31250000       0.12500000       0.12500000 </v>
   <v>       0.37500000       0.12500000       0.12500000 </v>
   <v>       0.43750000       0.12500000       0.12500000 </v>
   <v>       0.50000000       0.12500000       0.12500000 </v>
   <v>      -0.43750000       0.12500000       0.12500000 </v>
   <v>      -0.37500000       0.12500000       0.12500000 </v>
   <v>      -0.31250000       0.12500000       0.12500000 </v>
   <v>      -0.25000000       0.12500000       0.12500000 </v>
   <v>      -0.18750000       0.12500000       0.12500000 </v>
   <v>       0.00000000       0.18750000       0.12500000 </v>
   <v>       0.06250000       0.18750000       0.12500000 </v>
   <v>       0.12500000       0.18750000       0.12500000 </v>
   <v>       0.18750000       0.18750000       0.12500000 </v>
   <v>       0.25000000       0.18750000       0.12500000 </v>
   <v>       0.31250000       0.18750000       0.12500000 </v>
   <v>       0.37500000       0.18750000       0.12500000 </v>
   <v>       0.43750000       0.18750000       0.12500000 </v>
   <v>       0.50000000       0.18750000       0.12500000 </v>
   <v>      -0.43750000       0.18750000       0.12500000 </v>
   <v>      -0.37500000       0.18750000       0.12500000 </v>
   <v>      -0.31250000       0.18750000       0.12500000 </v>
   <v>      -0.25000000       0.18750000       0.12500000 </v>
   <v>       0.00000000       0.25000000       0.12500000 </v>
   <v>       0.06250000       0.25000000       0.12500000 </v>
   <v>       0.12500000       0.25000000       0.12500000 </v>
   <v>       0.18750000       0.25000000       0.12500000 </v>
   <v>       0.25000000       0.25000000       0.12500000 </v>
   <v>       0.31250000       0.25000000       0.12500000 </v>
   <v>       0.37500000       0.25000000       0.12500000 </v>
   <v>       0.43750000       0.25000000       0.12500000 </v>
   <v>       0.50000000       0.25000000       0.12500000 </v>
   <v>      -0.43750000       0.25000000       0.12500000 </v>
   <v>      -0.37500000       0.25000000       0.12500000 </v>
   <v>      -0.31250000       0.25000000       0.12500000 </v>
   <v>       0.00000000       0.31250000       0.12500000 </v>
   <v>       0.06250000       0.31250000       0.12500000 </v>
   <v>       0.12500000       0.31250000       0.12500000 </v>
   <v>       0.18750000       0.31250000       0.12500000 </v>
   <v>       0.25000000       0.31250000       0.12500000 </v>
   <v>       0.31250000       0.31250000       0.12500000 </v>
   <v>       0.37500000       0.31250000       0.12500000 </v>
   <v>       0.43750000       0.31250000       0.12500000 </v>
   <v>       0.50000000       0.31250000       0.12500000 </v>
   <v>      -0.43750000       0.31250000       0.12500000 </v>
   <v>      -0.37500000       0.31250000       0.12500000 </v>
   <v>       0.00000000       0.37500000       0.12500000 </v>
   <v>       0.06250000       0.37500000       0.12500000 </v>
   <v>       0.12500000       0.37500000       0.12500000 </v>
   <v>       0.18750000       0.37500000       0.12500000 </v>
   <v>       0.25000000       0.37500000       0.12500000 </v>
   <v>       0.31250000       0.37500000       0.12500000 </v>
   <v>       0.37500000       0.37500000       0.12500000 </v>
   <v>       0.43750000       0.37500000       0.12500000 </v>
   <v>       0.50000000       0.37500000       0.12500000 </v>
   <v>      -0.43750000       0.37500000       0.12500000 </v>
   <v>       0.00000000       0.43750000       0.12500000 </v>
   <v>       0.06250000       0.43750000       0.12500000 </v>
   <v>       0.12500000       0.43750000       0.12500000 </v>
   <v>       0.18750000       0.43750000       0.12500000 </v>
   <v>       0.25000000       0.43750000       0.12500000 </v>
   <v>       0.31250000       0.43750000       0.12500000 </v>
   <v>       0.37500000       0.43750000       0.12500000 </v>
   <v>       0.43750000       0.43750000       0.12500000 </v>
   <v>       0.50000000       0.43750000       0.12500000 </v>
   <v>       0.00000000       0.50000000       0.12500000 </v>
   <v>       0.06250000       0.50000000       0.12500000 </v>
   <v>       0.12500000       0.50000000       0.12500000 </v>
   <v>       0.18750000       0.50000000       0.12500000 </v>
   <v>       0.25000000       0.50000000       0.12500000 </v>
   <v>       0.31250000       0.50000000       0.12500000 </v>
   <v>       0.37500000       0.50000000       0.12500000 </v>
   <v>       0.43750000       0.50000000       0.12500000 </v>
   <v>       0.00000000      -0.43750000       0.12500000 </v>
   <v>       0.06250000      -0.43750000       0.12500000 </v>
   <v>       0.12500000      -0.43750000       0.12500000 </v>
   <v>       0.18750000      -0.43750000       0.12500000 </v>
   <v>       0.25000000      -0.43750000       0.12500000 </v>
   <v>       0.31250000      -0.43750000       0.12500000 </v>
   <v>       0.37500000      -0.43750000       0.12500000 </v>
   <v>       0.00000000      -0.37500000       0.12500000 </v>
   <v>       0.06250000      -0.37500000       0.12500000 </v>
   <v>       0.12500000      -0.37500000       0.12500000 </v>
   <v>       0.18750000      -0.37500000       0.12500000 </v>
   <v>       0.25000000      -0.37500000       0.12500000 </v>
   <v>       0.31250000      -0.37500000       0.12500000 </v>
   <v>       0.00000000      -0.31250000       0.12500000 </v>
   <v>       0.06250000      -0.31250000       0.12500000 </v>
   <v>       0.12500000      -0.31250000       0.12500000 </v>
   <v>       0.18750000      -0.31250000       0.12500000 </v>
   <v>       0.25000000      -0.31250000       0.12500000 </v>
   <v>       0.00000000      -0.25000000       0.12500000 </v>
   <v>       0.06250000      -0.25000000       0.12500000 </v>
   <v>       0.12500000      -0.25000000       0.12500000 </v>
   <v>       0.18750000      -0.25000000       0.12500000 </v>
   <v>       0.00000000      -0.18750000       0.12500000 </v>
   <v>       0.06250000      -0.18750000       0.12500000 </v>
   <v>       0.12500000      -0.18750000       0.12500000 </v>
   <v>       0.00000000      -0.12500000       0.12500000 </v>
   <v>       0.06250000      -0.12500000       0.12500000 </v>
   <v>       0.00000000      -0.06250000       0.12500000 </v>
   <v>       0.00000000      -0.00000000       0.18750000 </v>
   <v>       0.06250000       0.00000000       0.18750000 </v>
   <v>       0.12500000       0.00000000       0.18750000 </v>
   <v>       0.18750000       0.00000000       0.18750000 </v>
   <v>       0.25000000       0.00000000       0.18750000 </v>
   <v>       0.31250000       0.00000000       0.18750000 </v>
   <v>       0.37500000       0.00000000       0.18750000 </v>
   <v>       0.43750000       0.00000000       0.18750000 </v>
   <v>       0.50000000       0.00000000       0.18750000 </v>
   <v>      -0.43750000      -0.00000000       0.18750000 </v>
   <v>      -0.37500000      -0.00000000       0.18750000 </v>
   <v>      -0.31250000      -0.00000000       0.18750000 </v>
   <v>      -0.25000000      -0.00000000       0.18750000 </v>
   <v>      -0.18750000      -0.00000000       0.18750000 </v>
   <v>      -0.12500000      -0.00000000       0.18750000 </v>
   <v>      -0.06250000      -0.00000000       0.18750000 </v>
   <v>       0.00000000       0.06250000       0.18750000 </v>
   <v>       0.06250000       0.06250000       0.18750000 </v>
   <v>       0.12500000       0.06250000       0.18750000 </v>
   <v>       0.18750000       0.06250000       0.18750000 </v>
   <v>       0.25000000       0.06250000       0.18750000 </v>
   <v>       0.31250000       0.06250000       0.18750000 </v>
   <v>       0.37500000       0.06250000       0.18750000 </v>
   <v>       0.43750000       0.06250000       0.18750000 </v>
   <v>       0.50000000       0.06250000       0.18750000 </v>
   <v>      -0.43750000       0.06250000       0.18750000 </v>
   <v>      -0.37500000       0.06250000       0.18750000 </v>
   <v>      -0.31250000       0.06250000       0.18750000 </v>
   <v>      -0.25000000       0.06250000       0.18750000 </v>
   <v>      -0.18750000       0.06250000       0.18750000 </v>
   <v>      -0.12500000       0.06250000       0.18750000 </v>
   <v>       0.00000000       0.12500000       0.18750000 </v>
   <v>       0.06250000       0.12500000       0.18750000 </v>
   <v>       0.12500000       0.12500000       0.18750000 </v>
   <v>       0.18750000       0.12500000       0.18750000 </v>
   <v>       0.25000000       0.12500000       0.18750000 </v>
   <v>       0.31250000       0.12500000       0.18750000 </v>
   <v>       0.37500000       0.12500000       0.18750000 </v>
   <v>       0.43750000       0.12500000       0.18750000 </v>
   <v>       0.50000000       0.12500000       0.18750000 </v>
   <v>      -0.43750000       0.12500000       0.18750000 </v>
   <v>      -0.37500000       0.12500000       0.18750000 </v>
   <v>      -0.31250000       0.12500000       0.18750000 </v>
   <v>      -0.25000000       0.12500000       0.18750000 </v>
   <v>      -0.18750000       0.12500000       0.18750000 </v>
   <v>       0.00000000       0.18750000       0.18750000 </v>
   <v>       0.06250000       0.18750000       0.18750000 </v>
   <v>       0.12500000       0.18750000       0.18750000 </v>
   <v>       0.18750000       0.18750000       0.18750000 </v>
   <v>       0.25000000       0.18750000       0.18750000 </v>
   <v>       0.31250000       0.18750000       0.18750000 </v>
   <v>       0.37500000       0.18750000       0.18750000 </v>
   <v>       0.43750000       0.18750000       0.18750000 </v>
   <v>       0.50000000       0.18750000       0.18750000 </v>
   <v>      -0.43750000       0.18750000       0.18750000 </v>
   <v>      -0.37500000       0.18750000       0.18750000 </v>
   <v>      -0.31250000       0.18750000       0.18750000 </v>
   <v>      -0.25000000       0.18750000       0.18750000 </v>
   <v>       0.00000000       0.25000000       0.18750000 </v>
   <v>       0.06250000       0.25000000       0.18750000 </v>
   <v>       0.12500000       0.25000000       0.18750000 </v>
   <v>       0.18750000       0.25000000       0.18750000 </v>
   <v>       0.25000000       0.25000000       0.18750000 </v>
   <v>       0.31250000       0.25000000       0.18750000 </v>
   <v>       0.37500000       0.25000000       0.18750000 </v>
   <v>       0.43750000       0.25000000       0.18750000 </v>
   <v>       0.50000000       0.25000000       0.18750000 </v>
   <v>      -0.43750000       0.25000000       0.18750000 </v>
   <v>      -0.37500000       0.25000000       0.18750000 </v>
   <v>      -0.31250000       0.25000000       0.18750000 </v>
   <v>       0.00000000       0.31250000       0.18750000 </v>
   <v>       0.06250000       0.31250000       0.18750000 </v>
   <v>       0.12500000       0.31250000       0.18750000 </v>
   <v>       0.18750000       0.31250000       0.18750000 </v>
   <v>       0.25000000       0.31250000       0.18750000 </v>
   <v>       0.31250000       0.31250000       0.18750000 </v>
   <v>       0.37500000       0.31250000       0.18750000 </v>
   <v>       0.43750000       0.31250000       0.18750000 </v>
   <v>       0.50000000       0.31250000       0.18750000 </v>
   <v>      -0.43750000       0.31250000       0.18750000 </v>
   <v>      -0.37500000       0.31250000       0.18750000 </v>
   <v>       0.00000000       0.37500000       0.18750000 </v>
   <v>       0.06250000       0.37500000       0.18750000 </v>
   <v>       0.12500000       0.37500000       0.18750000 </v>
   <v>       0.18750000       0.37500000       0.18750000 </v>
   <v>       0.25000000       0.37500000       0.18750000 </v>
   <v>       0.31250000       0.37500000       0.18750000 </v>
   <v>       0.37500000       0.37500000       0.18750000 </v>
   <v>       0.43750000       0.37500000       0.18750000 </v>
   <v>       0.50000000       0.37500000       0.18750000 </v>
   <v>      -0.43750000       0.37500000       0.18750000 </v>
   <v>       0.00000000       0.43750000       0.18750000 </v>
   <v>       0.06250000       0.43750000       0.18750000 </v>
   <v>       0.12500000       0.43750000       0.18750000 </v>
   <v>       0.18750000       0.43750000       0.18750000 </v>
   <v>       0.25000000       0.43750000       0.18750000 </v>
   <v>       0.31250000       0.43750000       0.18750000 </v>
   <v>       0.37500000       0.43750000       0.18750000 </v>
   <v>       0.43750000       0.43750000       0.18750000 </v>
   <v>       0.50000000       0.43750000       0.18750000 </v>
   <v>       0.00000000       0.50000000       0.18750000 </v>
   <v>       0.06250000       0.50000000       0.18750000 </v>
   <v>       0.12500000       0.50000000       0.18750000 </v>
   <v>       0.18750000       0.50000000       0.18750000 </v>
   <v>       0.25000000       0.50000000       0.18750000 </v>
   <v>       0.31250000       0.50000000       0.18750000 </v>
   <v>       0.37500000       0.50000000       0.18750000 </v>
   <v>       0.43750000       0.50000000       0.18750000 </v>
   <v>       0.00000000      -0.43750000       0.18750000 </v>
   <v>       0.06250000      -0.43750000       0.18750000 </v>
   <v>       0.12500000      -0.43750000       0.18750000 </v>
   <v>       0.18750000      -0.43750000       0.18750000 </v>
   <v>       0.25000000      -0.43750000       0.18750000 </v>
   <v>       0.31250000      -0.43750000       0.18750000 </v>
   <v>       0.37500000      -0.43750000       0.18750000 </v>
   <v>       0.00000000      -0.37500000       0.18750000 </v>
   <v>       0.06250000      -0.37500000       0.18750000 </v>
   <v>       0.12500000      -0.37500000       0.18750000 </v>
   <v>       0.18750000      -0.37500000       0.18750000 </v>
   <v>       0.25000000      -0.37500000       0.18750000 </v>
   <v>       0.31250000      -0.37500000       0.18750000 </v>
   <v>       0.00000000      -0.31250000       0.18750000 </v>
   <v>       0.06250000      -0.31250000       0.18750000 </v>
   <v>       0.12500000      -0.31250000       0.18750000 </v>
   <v>       0.18750000      -0.31250000       0.18750000 </v>
   <v>       0.25000000      -0.31250000       0.18750000 </v>
   <v>       0.00000000      -0.25000000       0.18750000 </v>
   <v>       0.06250000      -0.25000000       0.18750000 </v>
   <v>       0.12500000      -0.25000000       0.18750000 </v>
   <v>       0.18750000      -0.25000000       0.18750000 </v>
   <v>       0.00000000      -0.18750000       0.18750000 </v>
   <v>       0.06250000      -0.18750000       0.18750000 </v>
   <v>       0.12500000      -0.18750000       0.18750000 </v>
   <v>       0.00000000      -0.12500000       0.18750000 </v>
   <v>       0.06250000      -0.12500000       0.18750000 </v>
   <v>       0.00000000      -0.06250000       0.18750000 </v>
   <v>       0.00000000      -0.00000000       0.25000000 </v>
   <v>       0.06250000       0.00000000       0.25000000 </v>
   <v>       0.12500000       0.00000000       0.25000000 </v>
   <v>       0.18750000       0.00000000       0.25000000 </v>
   <v>       0.25000000       0.00000000       0.25000000 </v>
   <v>       0.31250000       0.00000000       0.25000000 </v>
   <v>       0.37500000       0.00000000       0.25000000 </v>
   <v>       0.43750000       0.00000000       0.25000000 </v>
   <v>       0.50000000       0.00000000       0.25000000 </v>
   <v>      -0.43750000      -0.00000000       0.25000000 </v>
   <v>      -0.37500000      -0.00000000       0.25000000 </v>
   <v>      -0.31250000      -0.00000000       0.25000000 </v>
   <v>      -0.25000000      -0.00000000       0.25000000 </v>
   <v>      -0.18750000      -0.00000000       0.25000000 </v>
   <v>      -0.12500000      -0.00000000       0.25000000 </v>
   <v>      -0.06250000      -0.00000000       0.25000000 </v>
   <v>       0.00000000       0.06250000       0.25000000 </v>
   <v>       0.06250000       0.06250000       0.25000000 </v>
   <v>       0.12500000       0.06250000       0.25000000 </v>
   <v>       0.18750000       0.06250000       0.25000000 </v>
   <v>       0.25000000       0.06250000       0.25000000 </v>
   <v>       0.31250000       0.06250000       0.25000000 </v>
   <v>       0.37500000       0.06250000       0.25000000 </v>
   <v>       0.43750000       0.06250000       0.25000000 </v>
   <v>       0.50000000       0.06250000       0.25000000 </v>
   <v>      -0.43750000       0.06250000       0.25000000 </v>
   <v>      -0.37500000       0.06250000       0.25000000 </v>
   <v>      -0.31250000       0.06250000       0.25000000 </v>
   <v>      -0.25000000       0.06250000       0.25000000 </v>
   <v>      -0.18750000       0.06250000       0.25000000 </v>
   <v>      -0.12500000       0.06250000       0.25000000 </v>
   <v>       0.00000000       0.12500000       0.25000000 </v>
   <v>       0.06250000       0.12500000       0.25000000 </v>
   <v>       0.12500000       0.12500000       0.25000000 </v>
   <v>       0.18750000       0.12500000       0.25000000 </v>
   <v>       0.25000000       0.12500000       0.25000000 </v>
   <v>       0.31250000       0.12500000       0.25000000 </v>
   <v>       0.37500000       0.12500000       0.25000000 </v>
   <v>       0.43750000       0.12500000       0.25000000 </v>
   <v>       0.50000000       0.12500000       0.25000000 </v>
   <v>      -0.43750000       0.12500000       0.25000000 </v>
   <v>      -0.37500000       0.12500000       0.25000000 </v>
   <v>      -0.31250000       0.12500000       0.25000000 </v>
   <v>      -0.25000000       0.12500000       0.25000000 </v>
   <v>      -0.18750000       0.12500000       0.25000000 </v>
   <v>       0.00000000       0.18750000       0.25000000 </v>
   <v>       0.06250000       0.18750000       0.25000000 </v>
   <v>       0.12500000       0.18750000       0.25000000 </v>
   <v>       0.18750000       0.18750000       0.25000000 </v>
   <v>       0.25000000       0.18750000       0.25000000 </v>
   <v>       0.31250000       0.18750000       0.25000000 </v>
   <v>       0.37500000       0.18750000       0.25000000 </v>
   <v>       0.43750000       0.18750000       0.25000000 </v>
   <v>       0.50000000       0.18750000       0.25000000 </v>
   <v>      -0.43750000       0.18750000       0.25000000 </v>
   <v>      -0.37500000       0.18750000       0.25000000 </v>
   <v>      -0.31250000       0.18750000       0.25000000 </v>
   <v>      -0.25000000       0.18750000       0.25000000 </v>
   <v>       0.00000000       0.25000000       0.25000000 </v>
   <v>       0.06250000       0.25000000       0.25000000 </v>
   <v>       0.12500000       0.25000000       0.25000000 </v>
   <v>       0.18750000       0.25000000       0.25000000 </v>
   <v>       0.25000000       0.25000000       0.25000000 </v>
   <v>       0.31250000       0.25000000       0.25000000 </v>
   <v>       0.37500000       0.25000000       0.25000000 </v>
   <v>       0.43750000       0.25000000       0.25000000 </v>
   <v>       0.50000000       0.25000000       0.25000000 </v>
   <v>      -0.43750000       0.25000000       0.25000000 </v>
   <v>      -0.37500000       0.25000000       0.25000000 </v>
   <v>      -0.31250000       0.25000000       0.25000000 </v>
   <v>       0.00000000       0.31250000       0.25000000 </v>
   <v>       0.06250000       0.31250000       0.25000000 </v>
   <v>       0.12500000       0.31250000       0.25000000 </v>
   <v>       0.18750000       0.31250000       0.25000000 </v>
   <v>       0.25000000       0.31250000       0.25000000 </v>
   <v>       0.31250000       0.31250000       0.25000000 </v>
   <v>       0.37500000       0.31250000       0.25000000 </v>
   <v>       0.43750000       0.31250000       0.25000000 </v>
   <v>       0.50000000       0.31250000       0.25000000 </v>
   <v>      -0.43750000       0.31250000       0.25000000 </v>
   <v>      -0.37500000       0.31250000       0.25000000 </v>
   <v>       0.00000000       0.37500000       0.25000000 </v>
   <v>       0.06250000       0.37500000       0.25000000 </v>
   <v>       0.12500000       0.37500000       0.25000000 </v>
   <v>       0.18750000       0.37500000       0.25000000 </v>
   <v>       0.25000000       0.37500000       0.25000000 </v>
   <v>       0.31250000       0.37500000       0.25000000 </v>
   <v>       0.37500000       0.37500000       0.25000000 </v>
   <v>       0.43750000       0.37500000       0.25000000 </v>
   <v>       0.50000000       0.37500000       0.25000000 </v>
   <v>      -0.43750000       0.37500000       0.25000000 </v>
   <v>       0.00000000       0.43750000       0.25000000 </v>
   <v>       0.06250000       0.43750000       0.25000000 </v>
   <v>       0.12500000       0.43750000       0.25000000 </v>
   <v>       0.18750000       0.43750000       0.25000000 </v>
   <v>       0.25000000       0.43750000       0.25000000 </v>
   <v>       0.31250000       0.43750000       0.25000000 </v>
   <v>       0.37500000       0.43750000       0.25000000 </v>
   <v>       0.43750000       0.43750000       0.25000000 </v>
   <v>       0.50000000       0.43750000       0.25000000 </v>
   <v>       0.00000000       0.50000000       0.25000000 </v>
   <v>       0.06250000       0.50000000       0.25000000 </v>
   <v>       0.12500000       0.50000000       0.25000000 </v>
   <v>       0.18750000       0.50000000       0.25000000 </v>
   <v>       0.25000000       0.50000000       0.25000000 </v>
   <v>       0.31250000       0.50000000       0.25000000 </v>
   <v>       0.37500000       0.50000000       0.25000000 </v>
   <v>       0.43750000       0.50000000       0.25000000 </v>
   <v>       0.00000000      -0.43750000       0.25000000 </v>
   <v>       0.06250000      -0.43750000       0.25000000 </v>
   <v>       0.12500000      -0.43750000       0.25000000 </v>
   <v>       0.18750000      -0.43750000       0.25000000 </v>
   <v>       0.25000000      -0.43750000       0.25000000 </v>
   <v>       0.31250000      -0.43750000       0.25000000 </v>
   <v>       0.37500000      -0.43750000       0.25000000 </v>
   <v>       0.00000000      -0.37500000       0.25000000 </v>
   <v>       0.06250000      -0.37500000       0.25000000 </v>
   <v>       0.12500000      -0.37500000       0.25000000 </v>
   <v>       0.18750000      -0.37500000       0.25000000 </v>
   <v>       0.25000000      -0.37500000       0.25000000 </v>
   <v>       0.31250000      -0.37500000       0.25000000 </v>
   <v>       0.00000000      -0.31250000       0.25000000 </v>
   <v>       0.06250000      -0.31250000       0.25000000 </v>
   <v>       0.12500000      -0.31250000       0.25000000 </v>
   <v>       0.18750000      -0.31250000       0.25000000 </v>
   <v>       0.25000000      -0.31250000       0.25000000 </v>
   <v>       0.00000000      -0.25000000       0.25000000 </v>
   <v>       0.06250000      -0.25000000       0.25000000 </v>
   <v>       0.12500000      -0.25000000       0.25000000 </v>
   <v>       0.18750000      -0.25000000       0.25000000 </v>
   <v>       0.00000000      -0.18750000       0.25000000 </v>
   <v>       0.06250000      -0.18750000       0.25000000 </v>
   <v>       0.12500000      -0.18750000       0.25000000 </v>
   <v>       0.00000000      -0.12500000       0.25000000 </v>
   <v>       0.06250000      -0.12500000       0.25000000 </v>
   <v>       0.00000000      -0.06250000       0.25000000 </v>
   <v>       0.00000000       0.00000000       0.31250000 </v>
   <v>       0.06250000       0.00000000       0.31250000 </v>
   <v>       0.12500000       0.00000000       0.31250000 </v>
   <v>       0.18750000       0.00000000       0.31250000 </v>
   <v>       0.25000000       0.00000000       0.31250000 </v>
   <v>       0.31250000       0.00000000       0.31250000 </v>
   <v>       0.37500000       0.00000000       0.31250000 </v>
   <v>       0.43750000       0.00000000       0.31250000 </v>
   <v>       0.50000000       0.00000000       0.31250000 </v>
   <v>      -0.43750000      -0.00000000       0.31250000 </v>
   <v>      -0.37500000      -0.00000000       0.31250000 </v>
   <v>      -0.31250000       0.00000000       0.31250000 </v>
   <v>      -0.25000000      -0.00000000       0.31250000 </v>
   <v>      -0.18750000      -0.00000000       0.31250000 </v>
   <v>      -0.12500000      -0.00000000       0.31250000 </v>
   <v>      -0.06250000      -0.00000000       0.31250000 </v>
   <v>       0.00000000       0.06250000       0.31250000 </v>
   <v>       0.06250000       0.06250000       0.31250000 </v>
   <v>       0.12500000       0.06250000       0.31250000 </v>
   <v>       0.18750000       0.06250000       0.31250000 </v>
   <v>       0.25000000       0.06250000       0.31250000 </v>
   <v>       0.31250000       0.06250000       0.31250000 </v>
   <v>       0.37500000       0.06250000       0.31250000 </v>
   <v>       0.43750000       0.06250000       0.31250000 </v>
   <v>       0.50000000       0.06250000       0.31250000 </v>
   <v>      -0.43750000       0.06250000       0.31250000 </v>
   <v>      -0.37500000       0.06250000       0.31250000 </v>
   <v>      -0.31250000       0.06250000       0.31250000 </v>
   <v>      -0.25000000       0.06250000       0.31250000 </v>
   <v>      -0.18750000       0.06250000       0.31250000 </v>
   <v>      -0.12500000       0.06250000       0.31250000 </v>
   <v>       0.00000000       0.12500000       0.31250000 </v>
   <v>       0.06250000       0.12500000       0.31250000 </v>
   <v>       0.12500000       0.12500000       0.31250000 </v>
   <v>       0.18750000       0.12500000       0.31250000 </v>
   <v>       0.25000000       0.12500000       0.31250000 </v>
   <v>       0.31250000       0.12500000       0.31250000 </v>
   <v>       0.37500000       0.12500000       0.31250000 </v>
   <v>       0.43750000       0.12500000       0.31250000 </v>
   <v>       0.50000000       0.12500000       0.31250000 </v>
   <v>      -0.43750000       0.12500000       0.31250000 </v>
   <v>      -0.37500000       0.12500000       0.31250000 </v>
   <v>      -0.31250000       0.12500000       0.31250000 </v>
   <v>      -0.25000000       0.12500000       0.31250000 </v>
   <v>      -0.18750000       0.12500000       0.31250000 </v>
   <v>       0.00000000       0.18750000       0.31250000 </v>
   <v>       0.06250000       0.18750000       0.31250000 </v>
   <v>       0.12500000       0.18750000       0.31250000 </v>
   <v>       0.18750000       0.18750000       0.31250000 </v>
   <v>       0.25000000       0.18750000       0.31250000 </v>
   <v>       0.31250000       0.18750000       0.31250000 </v>
   <v>       0.37500000       0.18750000       0.31250000 </v>
   <v>       0.43750000       0.18750000       0.31250000 </v>
   <v>       0.50000000       0.18750000       0.31250000 </v>
   <v>      -0.43750000       0.18750000       0.31250000 </v>
   <v>      -0.37500000       0.18750000       0.31250000 </v>
   <v>      -0.31250000       0.18750000       0.31250000 </v>
   <v>      -0.25000000       0.18750000       0.31250000 </v>
   <v>       0.00000000       0.25000000       0.31250000 </v>
   <v>       0.06250000       0.25000000       0.31250000 </v>
   <v>       0.12500000       0.25000000       0.31250000 </v>
   <v>       0.18750000       0.25000000       0.31250000 </v>
   <v>       0.25000000       0.25000000       0.31250000 </v>
   <v>       0.31250000       0.25000000       0.31250000 </v>
   <v>       0.37500000       0.25000000       0.31250000 </v>
   <v>       0.43750000       0.25000000       0.31250000 </v>
   <v>       0.50000000       0.25000000       0.31250000 </v>
   <v>      -0.43750000       0.25000000       0.31250000 </v>
   <v>      -0.37500000       0.25000000       0.31250000 </v>
   <v>      -0.31250000       0.25000000       0.31250000 </v>
   <v>       0.00000000       0.31250000       0.31250000 </v>
   <v>       0.06250000       0.31250000       0.31250000 </v>
   <v>       0.12500000       0.31250000       0.31250000 </v>
   <v>       0.18750000       0.31250000       0.31250000 </v>
   <v>       0.25000000       0.31250000       0.31250000 </v>
   <v>       0.31250000       0.31250000       0.31250000 </v>
   <v>       0.37500000       0.31250000       0.31250000 </v>
   <v>       0.43750000       0.31250000       0.31250000 </v>
   <v>       0.50000000       0.31250000       0.31250000 </v>
   <v>      -0.43750000       0.31250000       0.31250000 </v>
   <v>      -0.37500000       0.31250000       0.31250000 </v>
   <v>       0.00000000       0.37500000       0.31250000 </v>
   <v>       0.06250000       0.37500000       0.31250000 </v>
   <v>       0.12500000       0.37500000       0.31250000 </v>
   <v>       0.18750000       0.37500000       0.31250000 </v>
   <v>       0.25000000       0.37500000       0.31250000 </v>
   <v>       0.31250000       0.37500000       0.31250000 </v>
   <v>       0.37500000       0.37500000       0.31250000 </v>
   <v>       0.43750000       0.37500000       0.31250000 </v>
   <v>       0.50000000       0.37500000       0.31250000 </v>
   <v>      -0.43750000       0.37500000       0.31250000 </v>
   <v>       0.00000000       0.43750000       0.31250000 </v>
   <v>       0.06250000       0.43750000       0.31250000 </v>
   <v>       0.12500000       0.43750000       0.31250000 </v>
   <v>       0.18750000       0.43750000       0.31250000 </v>
   <v>       0.25000000       0.43750000       0.31250000 </v>
   <v>       0.31250000       0.43750000       0.31250000 </v>
   <v>       0.37500000       0.43750000       0.31250000 </v>
   <v>       0.43750000       0.43750000       0.31250000 </v>
   <v>       0.50000000       0.43750000       0.31250000 </v>
   <v>       0.00000000       0.50000000       0.31250000 </v>
   <v>       0.06250000       0.50000000       0.31250000 </v>
   <v>       0.12500000       0.50000000       0.31250000 </v>
   <v>       0.18750000       0.50000000       0.31250000 </v>
   <v>       0.25000000       0.50000000       0.31250000 </v>
   <v>       0.31250000       0.50000000       0.31250000 </v>
   <v>       0.37500000       0.50000000       0.31250000 </v>
   <v>       0.43750000       0.50000000       0.31250000 </v>
   <v>       0.00000000      -0.43750000       0.31250000 </v>
   <v>       0.06250000      -0.43750000       0.31250000 </v>
   <v>       0.12500000      -0.43750000       0.31250000 </v>
   <v>       0.18750000      -0.43750000       0.31250000 </v>
   <v>       0.25000000      -0.43750000       0.31250000 </v>
   <v>       0.31250000      -0.43750000       0.31250000 </v>
   <v>       0.37500000      -0.43750000       0.31250000 </v>
   <v>       0.00000000      -0.37500000       0.31250000 </v>
   <v>       0.06250000      -0.37500000       0.31250000 </v>
   <v>       0.12500000      -0.37500000       0.31250000 </v>
   <v>       0.18750000      -0.37500000       0.31250000 </v>
   <v>       0.25000000      -0.37500000       0.31250000 </v>
   <v>       0.31250000      -0.37500000       0.31250000 </v>
   <v>       0.00000000      -0.31250000       0.31250000 </v>
   <v>       0.06250000      -0.31250000       0.31250000 </v>
   <v>       0.12500000      -0.31250000       0.31250000 </v>
   <v>       0.18750000      -0.31250000       0.31250000 </v>
   <v>       0.25000000      -0.31250000       0.31250000 </v>
   <v>       0.00000000      -0.25000000       0.31250000 </v>
   <v>       0.06250000      -0.25000000       0.31250000 </v>
   <v>       0.12500000      -0.25000000       0.31250000 </v>
   <v>       0.18750000      -0.25000000       0.31250000 </v>
   <v>       0.00000000      -0.18750000       0.31250000 </v>
   <v>       0.06250000      -0.18750000       0.31250000 </v>
   <v>       0.12500000      -0.18750000       0.31250000 </v>
   <v>       0.00000000      -0.12500000       0.31250000 </v>
   <v>       0.06250000      -0.12500000       0.31250000 </v>
   <v>       0.00000000      -0.06250000       0.31250000 </v>
   <v>       0.00000000      -0.00000000       0.37500000 </v>
   <v>       0.06250000       0.00000000       0.37500000 </v>
   <v>       0.12500000       0.00000000       0.37500000 </v>
   <v>       0.18750000       0.00000000       0.37500000 </v>
   <v>       0.25000000       0.00000000       0.37500000 </v>
   <v>       0.31250000       0.00000000       0.37500000 </v>
   <v>       0.37500000       0.00000000       0.37500000 </v>
   <v>       0.43750000       0.00000000       0.37500000 </v>
   <v>       0.50000000       0.00000000       0.37500000 </v>
   <v>      -0.43750000      -0.00000000       0.37500000 </v>
   <v>      -0.37500000      -0.00000000       0.37500000 </v>
   <v>      -0.31250000      -0.00000000       0.37500000 </v>
   <v>      -0.25000000      -0.00000000       0.37500000 </v>
   <v>      -0.18750000      -0.00000000       0.37500000 </v>
   <v>      -0.12500000      -0.00000000       0.37500000 </v>
   <v>      -0.06250000      -0.00000000       0.37500000 </v>
   <v>       0.00000000       0.06250000       0.37500000 </v>
   <v>       0.06250000       0.06250000       0.37500000 </v>
   <v>       0.12500000       0.06250000       0.37500000 </v>
   <v>       0.18750000       0.06250000       0.37500000 </v>
   <v>       0.25000000       0.06250000       0.37500000 </v>
   <v>       0.31250000       0.06250000       0.37500000 </v>
   <v>       0.37500000       0.06250000       0.37500000 </v>
   <v>       0.43750000       0.06250000       0.37500000 </v>
   <v>       0.50000000       0.06250000       0.37500000 </v>
   <v>      -0.43750000       0.06250000       0.37500000 </v>
   <v>      -0.37500000       0.06250000       0.37500000 </v>
   <v>      -0.31250000       0.06250000       0.37500000 </v>
   <v>      -0.25000000       0.06250000       0.37500000 </v>
   <v>      -0.18750000       0.06250000       0.37500000 </v>
   <v>      -0.12500000       0.06250000       0.37500000 </v>
   <v>       0.00000000       0.12500000       0.37500000 </v>
   <v>       0.06250000       0.12500000       0.37500000 </v>
   <v>       0.12500000       0.12500000       0.37500000 </v>
   <v>       0.18750000       0.12500000       0.37500000 </v>
   <v>       0.25000000       0.12500000       0.37500000 </v>
   <v>       0.31250000       0.12500000       0.37500000 </v>
   <v>       0.37500000       0.12500000       0.37500000 </v>
   <v>       0.43750000       0.12500000       0.37500000 </v>
   <v>       0.50000000       0.12500000       0.37500000 </v>
   <v>      -0.43750000       0.12500000       0.37500000 </v>
   <v>      -0.37500000       0.12500000       0.37500000 </v>
   <v>      -0.31250000       0.12500000       0.37500000 </v>
   <v>      -0.25000000       0.12500000       0.37500000 </v>
   <v>      -0.18750000       0.12500000       0.37500000 </v>
   <v>       0.00000000       0.18750000       0.37500000 </v>
   <v>       0.06250000       0.18750000       0.37500000 </v>
   <v>       0.12500000       0.18750000       0.37500000 </v>
   <v>       0.18750000       0.18750000       0.37500000 </v>
   <v>       0.25000000       0.18750000       0.37500000 </v>
   <v>       0.31250000       0.18750000       0.37500000 </v>
   <v>       0.37500000       0.18750000       0.37500000 </v>
   <v>       0.43750000       0.18750000       0.37500000 </v>
   <v>       0.50000000       0.18750000       0.37500000 </v>
   <v>      -0.43750000       0.18750000       0.37500000 </v>
   <v>      -0.37500000       0.18750000       0.37500000 </v>
   <v>      -0.31250000       0.18750000       0.37500000 </v>
   <v>      -0.25000000       0.18750000       0.37500000 </v>
   <v>       0.00000000       0.25000000       0.37500000 </v>
   <v>       0.06250000       0.25000000       0.37500000 </v>
   <v>       0.12500000       0.25000000       0.37500000 </v>
   <v>       0.18750000       0.25000000       0.37500000 </v>
   <v>       0.25000000       0.25000000       0.37500000 </v>
   <v>       0.31250000       0.25000000       0.37500000 </v>
   <v>       0.37500000       0.25000000       0.37500000 </v>
   <v>       0.43750000       0.25000000       0.37500000 </v>
   <v>       0.50000000       0.25000000       0.37500000 </v>
   <v>      -0.43750000       0.25000000       0.37500000 </v>
   <v>      -0.37500000       0.25000000       0.37500000 </v>
   <v>      -0.31250000       0.25000000       0.37500000 </v>
   <v>       0.00000000       0.31250000       0.37500000 </v>
   <v>       0.06250000       0.31250000       0.37500000 </v>
   <v>       0.12500000       0.31250000       0.37500000 </v>
   <v>       0.18750000       0.31250000       0.37500000 </v>
   <v>       0.25000000       0.31250000       0.37500000 </v>
   <v>       0.31250000       0.31250000       0.37500000 </v>
   <v>       0.37500000       0.31250000       0.37500000 </v>
   <v>       0.43750000       0.31250000       0.37500000 </v>
   <v>       0.50000000       0.31250000       0.37500000 </v>
   <v>      -0.43750000       0.31250000       0.37500000 </v>
   <v>      -0.37500000       0.31250000       0.37500000 </v>
   <v>       0.00000000       0.37500000       0.37500000 </v>
   <v>       0.06250000       0.37500000       0.37500000 </v>
   <v>       0.12500000       0.37500000       0.37500000 </v>
   <v>       0.18750000       0.37500000       0.37500000 </v>
   <v>       0.25000000       0.37500000       0.37500000 </v>
   <v>       0.31250000       0.37500000       0.37500000 </v>
   <v>       0.37500000       0.37500000       0.37500000 </v>
   <v>       0.43750000       0.37500000       0.37500000 </v>
   <v>       0.50000000       0.37500000       0.37500000 </v>
   <v>      -0.43750000       0.37500000       0.37500000 </v>
   <v>       0.00000000       0.43750000       0.37500000 </v>
   <v>       0.06250000       0.43750000       0.37500000 </v>
   <v>       0.12500000       0.43750000       0.37500000 </v>
   <v>       0.18750000       0.43750000       0.37500000 </v>
   <v>       0.25000000       0.43750000       0.37500000 </v>
   <v>       0.31250000       0.43750000       0.37500000 </v>
   <v>       0.37500000       0.43750000       0.37500000 </v>
   <v>       0.43750000       0.43750000       0.37500000 </v>
   <v>       0.50000000       0.43750000       0.37500000 </v>
   <v>       0.00000000       0.50000000       0.37500000 </v>
   <v>       0.06250000       0.50000000       0.37500000 </v>
   <v>       0.12500000       0.50000000       0.37500000 </v>
   <v>       0.18750000       0.50000000       0.37500000 </v>
   <v>       0.25000000       0.50000000       0.37500000 </v>
   <v>       0.31250000       0.50000000       0.37500000 </v>
   <v>       0.37500000       0.50000000       0.37500000 </v>
   <v>       0.43750000       0.50000000       0.37500000 </v>
   <v>       0.00000000      -0.43750000       0.37500000 </v>
   <v>       0.06250000      -0.43750000       0.37500000 </v>
   <v>       0.12500000      -0.43750000       0.37500000 </v>
   <v>       0.18750000      -0.43750000       0.37500000 </v>
   <v>       0.25000000      -0.43750000       0.37500000 </v>
   <v>       0.31250000      -0.43750000       0.37500000 </v>
   <v>       0.37500000      -0.43750000       0.37500000 </v>
   <v>       0.00000000      -0.37500000       0.37500000 </v>
   <v>       0.06250000      -0.37500000       0.37500000 </v>
   <v>       0.12500000      -0.37500000       0.37500000 </v>
   <v>       0.18750000      -0.37500000       0.37500000 </v>
   <v>       0.25000000      -0.37500000       0.37500000 </v>
   <v>       0.31250000      -0.37500000       0.37500000 </v>
   <v>       0.00000000      -0.31250000       0.37500000 </v>
   <v>       0.06250000      -0.31250000       0.37500000 </v>
   <v>       0.12500000      -0.31250000       0.37500000 </v>
   <v>       0.18750000      -0.31250000       0.37500000 </v>
   <v>       0.25000000      -0.31250000       0.37500000 </v>
   <v>       0.00000000      -0.25000000       0.37500000 </v>
   <v>       0.06250000      -0.25000000       0.37500000 </v>
   <v>       0.12500000      -0.25000000       0.37500000 </v>
   <v>       0.18750000      -0.25000000       0.37500000 </v>
   <v>       0.00000000      -0.18750000       0.37500000 </v>
   <v>       0.06250000      -0.18750000       0.37500000 </v>
   <v>       0.12500000      -0.18750000       0.37500000 </v>
   <v>       0.00000000      -0.12500000       0.37500000 </v>
   <v>       0.06250000      -0.12500000       0.37500000 </v>
   <v>       0.00000000      -0.06250000       0.37500000 </v>
   <v>       0.00000000      -0.00000000       0.43750000 </v>
   <v>       0.06250000       0.00000000       0.43750000 </v>
   <v>       0.12500000       0.00000000       0.43750000 </v>
   <v>       0.18750000       0.00000000       0.43750000 </v>
   <v>       0.25000000       0.00000000       0.43750000 </v>
   <v>       0.31250000       0.00000000       0.43750000 </v>
   <v>       0.37500000       0.00000000       0.43750000 </v>
   <v>       0.43750000       0.00000000       0.43750000 </v>
   <v>       0.50000000       0.00000000       0.43750000 </v>
   <v>      -0.43750000      -0.00000000       0.43750000 </v>
   <v>      -0.37500000      -0.00000000       0.43750000 </v>
   <v>      -0.31250000      -0.00000000       0.43750000 </v>
   <v>      -0.25000000      -0.00000000       0.43750000 </v>
   <v>      -0.18750000      -0.00000000       0.43750000 </v>
   <v>      -0.12500000      -0.00000000       0.43750000 </v>
   <v>      -0.06250000      -0.00000000       0.43750000 </v>
   <v>       0.00000000       0.06250000       0.43750000 </v>
   <v>       0.06250000       0.06250000       0.43750000 </v>
   <v>       0.12500000       0.06250000       0.43750000 </v>
   <v>       0.18750000       0.06250000       0.43750000 </v>
   <v>       0.25000000       0.06250000       0.43750000 </v>
   <v>       0.31250000       0.06250000       0.43750000 </v>
   <v>       0.37500000       0.06250000       0.43750000 </v>
   <v>       0.43750000       0.06250000       0.43750000 </v>
   <v>       0.50000000       0.06250000       0.43750000 </v>
   <v>      -0.43750000       0.06250000       0.43750000 </v>
   <v>      -0.37500000       0.06250000       0.43750000 </v>
   <v>      -0.31250000       0.06250000       0.43750000 </v>
   <v>      -0.25000000       0.06250000       0.43750000 </v>
   <v>      -0.18750000       0.06250000       0.43750000 </v>
   <v>      -0.12500000       0.06250000       0.43750000 </v>
   <v>       0.00000000       0.12500000       0.43750000 </v>
   <v>       0.06250000       0.12500000       0.43750000 </v>
   <v>       0.12500000       0.12500000       0.43750000 </v>
   <v>       0.18750000       0.12500000       0.43750000 </v>
   <v>       0.25000000       0.12500000       0.43750000 </v>
   <v>       0.31250000       0.12500000       0.43750000 </v>
   <v>       0.37500000       0.12500000       0.43750000 </v>
   <v>       0.43750000       0.12500000       0.43750000 </v>
   <v>       0.50000000       0.12500000       0.43750000 </v>
   <v>      -0.43750000       0.12500000       0.43750000 </v>
   <v>      -0.37500000       0.12500000       0.43750000 </v>
   <v>      -0.31250000       0.12500000       0.43750000 </v>
   <v>      -0.25000000       0.12500000       0.43750000 </v>
   <v>      -0.18750000       0.12500000       0.43750000 </v>
   <v>       0.00000000       0.18750000       0.43750000 </v>
   <v>       0.06250000       0.18750000       0.43750000 </v>
   <v>       0.12500000       0.18750000       0.43750000 </v>
   <v>       0.18750000       0.18750000       0.43750000 </v>
   <v>       0.25000000       0.18750000       0.43750000 </v>
   <v>       0.31250000       0.18750000       0.43750000 </v>
   <v>       0.37500000       0.18750000       0.43750000 </v>
   <v>       0.43750000       0.18750000       0.43750000 </v>
   <v>       0.50000000       0.18750000       0.43750000 </v>
   <v>      -0.43750000       0.18750000       0.43750000 </v>
   <v>      -0.37500000       0.18750000       0.43750000 </v>
   <v>      -0.31250000       0.18750000       0.43750000 </v>
   <v>      -0.25000000       0.18750000       0.43750000 </v>
   <v>       0.00000000       0.25000000       0.43750000 </v>
   <v>       0.06250000       0.25000000       0.43750000 </v>
   <v>       0.12500000       0.25000000       0.43750000 </v>
   <v>       0.18750000       0.25000000       0.43750000 </v>
   <v>       0.25000000       0.25000000       0.43750000 </v>
   <v>       0.31250000       0.25000000       0.43750000 </v>
   <v>       0.37500000       0.25000000       0.43750000 </v>
   <v>       0.43750000       0.25000000       0.43750000 </v>
   <v>       0.50000000       0.25000000       0.43750000 </v>
   <v>      -0.43750000       0.25000000       0.43750000 </v>
   <v>      -0.37500000       0.25000000       0.43750000 </v>
   <v>      -0.31250000       0.25000000       0.43750000 </v>
   <v>       0.00000000       0.31250000       0.43750000 </v>
   <v>       0.06250000       0.31250000       0.43750000 </v>
   <v>       0.12500000       0.31250000       0.43750000 </v>
   <v>       0.18750000       0.31250000       0.43750000 </v>
   <v>       0.25000000       0.31250000       0.43750000 </v>
   <v>       0.31250000       0.31250000       0.43750000 </v>
   <v>       0.37500000       0.31250000       0.43750000 </v>
   <v>       0.43750000       0.31250000       0.43750000 </v>
   <v>       0.50000000       0.31250000       0.43750000 </v>
   <v>      -0.43750000       0.31250000       0.43750000 </v>
   <v>      -0.37500000       0.31250000       0.43750000 </v>
   <v>       0.00000000       0.37500000       0.43750000 </v>
   <v>       0.06250000       0.37500000       0.43750000 </v>
   <v>       0.12500000       0.37500000       0.43750000 </v>
   <v>       0.18750000       0.37500000       0.43750000 </v>
   <v>       0.25000000       0.37500000       0.43750000 </v>
   <v>       0.31250000       0.37500000       0.43750000 </v>
   <v>       0.37500000       0.37500000       0.43750000 </v>
   <v>       0.43750000       0.37500000       0.43750000 </v>
   <v>       0.50000000       0.37500000       0.43750000 </v>
   <v>      -0.43750000       0.37500000       0.43750000 </v>
   <v>       0.00000000       0.43750000       0.43750000 </v>
   <v>       0.06250000       0.43750000       0.43750000 </v>
   <v>       0.12500000       0.43750000       0.43750000 </v>
   <v>       0.18750000       0.43750000       0.43750000 </v>
   <v>       0.25000000       0.43750000       0.43750000 </v>
   <v>       0.31250000       0.43750000       0.43750000 </v>
   <v>       0.37500000       0.43750000       0.43750000 </v>
   <v>       0.43750000       0.43750000       0.43750000 </v>
   <v>       0.50000000       0.43750000       0.43750000 </v>
   <v>       0.00000000       0.50000000       0.43750000 </v>
   <v>       0.06250000       0.50000000       0.43750000 </v>
   <v>       0.12500000       0.50000000       0.43750000 </v>
   <v>       0.18750000       0.50000000       0.43750000 </v>
   <v>       0.25000000       0.50000000       0.43750000 </v>
   <v>       0.31250000       0.50000000       0.43750000 </v>
   <v>       0.37500000       0.50000000       0.43750000 </v>
   <v>       0.43750000       0.50000000       0.43750000 </v>
   <v>       0.00000000      -0.43750000       0.43750000 </v>
   <v>       0.06250000      -0.43750000       0.43750000 </v>
   <v>       0.12500000      -0.43750000       0.43750000 </v>
   <v>       0.18750000      -0.43750000       0.43750000 </v>
   <v>       0.25000000      -0.43750000       0.43750000 </v>
   <v>       0.31250000      -0.43750000       0.43750000 </v>
   <v>       0.37500000      -0.43750000       0.43750000 </v>
   <v>       0.00000000      -0.37500000       0.43750000 </v>
   <v>       0.06250000      -0.37500000       0.43750000 </v>
   <v>       0.12500000      -0.37500000       0.43750000 </v>
   <v>       0.18750000      -0.37500000       0.43750000 </v>
   <v>       0.25000000      -0.37500000       0.43750000 </v>
   <v>       0.31250000      -0.37500000       0.43750000 </v>
   <v>       0.00000000      -0.31250000       0.43750000 </v>
   <v>       0.06250000      -0.31250000       0.43750000 </v>
   <v>       0.12500000      -0.31250000       0.43750000 </v>
   <v>       0.18750000      -0.31250000       0.43750000 </v>
   <v>       0.25000000      -0.31250000       0.43750000 </v>
   <v>       0.00000000      -0.25000000       0.43750000 </v>
   <v>       0.06250000      -0.25000000       0.43750000 </v>
   <v>       0.12500000      -0.25000000       0.43750000 </v>
   <v>       0.18750000      -0.25000000       0.43750000 </v>
   <v>       0.00000000      -0.18750000       0.43750000 </v>
   <v>       0.06250000      -0.18750000       0.43750000 </v>
   <v>       0.12500000      -0.18750000       0.43750000 </v>
   <v>       0.00000000      -0.12500000       0.43750000 </v>
   <v>       0.06250000      -0.12500000       0.43750000 </v>
   <v>       0.00000000      -0.06250000       0.43750000 </v>
   <v>       0.00000000      -0.00000000       0.50000000 </v>
   <v>       0.06250000       0.00000000       0.50000000 </v>
   <v>       0.12500000       0.00000000       0.50000000 </v>
   <v>       0.18750000       0.00000000       0.50000000 </v>
   <v>       0.25000000       0.00000000       0.50000000 </v>
   <v>       0.31250000       0.00000000       0.50000000 </v>
   <v>       0.37500000       0.00000000       0.50000000 </v>
   <v>       0.43750000       0.00000000       0.50000000 </v>
   <v>       0.50000000       0.00000000       0.50000000 </v>
   <v>       0.00000000       0.06250000       0.50000000 </v>
   <v>       0.06250000       0.06250000       0.50000000 </v>
   <v>       0.12500000       0.06250000       0.50000000 </v>
   <v>       0.18750000       0.06250000       0.50000000 </v>
   <v>       0.25000000       0.06250000       0.50000000 </v>
   <v>       0.31250000       0.06250000       0.50000000 </v>
   <v>       0.37500000       0.06250000       0.50000000 </v>
   <v>       0.43750000       0.06250000       0.50000000 </v>
   <v>       0.50000000       0.06250000       0.50000000 </v>
   <v>      -0.43750000       0.06250000       0.50000000 </v>
   <v>      -0.37500000       0.06250000       0.50000000 </v>
   <v>      -0.31250000       0.06250000       0.50000000 </v>
   <v>      -0.25000000       0.06250000       0.50000000 </v>
   <v>      -0.18750000       0.06250000       0.50000000 </v>
   <v>      -0.12500000       0.06250000       0.50000000 </v>
   <v>       0.00000000       0.12500000       0.50000000 </v>
   <v>       0.06250000       0.12500000       0.50000000 </v>
   <v>       0.12500000       0.12500000       0.50000000 </v>
   <v>       0.18750000       0.12500000       0.50000000 </v>
   <v>       0.25000000       0.12500000       0.50000000 </v>
   <v>       0.31250000       0.12500000       0.50000000 </v>
   <v>       0.37500000       0.12500000       0.50000000 </v>
   <v>       0.43750000       0.12500000       0.50000000 </v>
   <v>       0.50000000       0.12500000       0.50000000 </v>
   <v>      -0.43750000       0.12500000       0.50000000 </v>
   <v>      -0.37500000       0.12500000       0.50000000 </v>
   <v>      -0.31250000       0.12500000       0.50000000 </v>
   <v>      -0.25000000       0.12500000       0.50000000 </v>
   <v>       0.00000000       0.18750000       0.50000000 </v>
   <v>       0.06250000       0.18750000       0.50000000 </v>
   <v>       0.12500000       0.18750000       0.50000000 </v>
   <v>       0.18750000       0.18750000       0.50000000 </v>
   <v>       0.25000000       0.18750000       0.50000000 </v>
   <v>       0.31250000       0.18750000       0.50000000 </v>
   <v>       0.37500000       0.18750000       0.50000000 </v>
   <v>       0.43750000       0.18750000       0.50000000 </v>
   <v>       0.50000000       0.18750000       0.50000000 </v>
   <v>      -0.43750000       0.18750000       0.50000000 </v>
   <v>      -0.37500000       0.18750000       0.50000000 </v>
   <v>       0.00000000       0.25000000       0.50000000 </v>
   <v>       0.06250000       0.25000000       0.50000000 </v>
   <v>       0.12500000       0.25000000       0.50000000 </v>
   <v>       0.18750000       0.25000000       0.50000000 </v>
   <v>       0.25000000       0.25000000       0.50000000 </v>
   <v>       0.31250000       0.25000000       0.50000000 </v>
   <v>       0.37500000       0.25000000       0.50000000 </v>
   <v>       0.43750000       0.25000000       0.50000000 </v>
   <v>       0.50000000       0.25000000       0.50000000 </v>
   <v>       0.00000000       0.31250000       0.50000000 </v>
   <v>       0.06250000       0.31250000       0.50000000 </v>
   <v>       0.12500000       0.31250000       0.50000000 </v>
   <v>       0.18750000       0.31250000       0.50000000 </v>
   <v>       0.25000000       0.31250000       0.50000000 </v>
   <v>       0.31250000       0.31250000       0.50000000 </v>
   <v>       0.37500000       0.31250000       0.50000000 </v>
   <v>       0.00000000       0.37500000       0.50000000 </v>
   <v>       0.06250000       0.37500000       0.50000000 </v>
   <v>       0.12500000       0.37500000       0.50000000 </v>
   <v>       0.18750000       0.37500000       0.50000000 </v>
   <v>       0.25000000       0.37500000       0.50000000 </v>
   <v>       0.00000000       0.43750000       0.50000000 </v>
   <v>       0.06250000       0.43750000       0.50000000 </v>
   <v>       0.12500000       0.43750000       0.50000000 </v>
   <v>       0.00000000       0.50000000       0.50000000 </v>
  </varray>
  <varray name="weights" >
   <v>       0.00024414 </v>
   <v>       0.00097656 </v>
   <v>       0.00097656 </v>
   <v>       0.00097656 </v>
   <v>       0.00097656 </v>
   <v>       0.00097656 </v>
   <v>       0.00097656 </v>
   <v>       0.00097656 </v>
   <v>       0.00048828 </v>
   <v>       0.00048828 </v>
   <v>       0.00097656 </v>
   <v>       0.00097656 </v>
   <v>       0.00097656 </v>
   <v>       0.00097656 </v>
   <v>       0.00097656 </v>
   <v>       0.00097656 </v>
   <v>       0.00097656 </v>
   <v>       0.00097656 </v>
   <v>       0.00097656 </v>
   <v>       0.00097656 </v>
   <v>       0.00097656 </v>
   <v>       0.00097656 </v>
   <v>       0.00097656 </v>
   <v>       0.00048828 </v>
   <v>       0.00048828 </v>
   <v>       0.00097656 </v>
   <v>       0.00097656 </v>
   <v>       0.00097656 </v>
   <v>       0.00097656 </v>
   <v>       0.00097656 </v>
   <v>       0.00097656 </v>
   <v>       0.00097656 </v>
   <v>       0.00097656 </v>
   <v>       0.00097656 </v>
   <v>       0.00097656 </v>
   <v>       0.00097656 </v>
   <v>       0.00048828 </v>
   <v>       0.00048828 </v>
   <v>       0.00097656 </v>
   <v>       0.00097656 </v>
   <v>       0.00097656 </v>
   <v>       0.00097656 </v>
   <v>       0.00097656 </v>
   <v>       0.00097656 </v>
   <v>       0.00097656 </v>
   <v>       0.00097656 </v>
   <v>       0.00097656 </v>
   <v>       0.00048828 </v>
   <v>       0.00048828 </v>
   <v>       0.00097656 </v>
   <v>       0.00097656 </v>
   <v>       0.00097656 </v>
   <v>       0.00097656 </v>
   <v>       0.00097656 </v>
   <v>       0.00097656 </v>
   <v>       0.00097656 </v>
   <v>       0.00048828 </v>
   <v>       0.00048828 </v>
   <v>       0.00097656 </v>
   <v>       0.00097656 </v>
   <v>       0.00097656 </v>
   <v>       0.00097656 </v>
   <v>       0.00097656 </v>
   <v>       0.00048828 </v>
   <v>       0.00048828 </v>
   <v>       0.00097656 </v>
   <v>       0.00097656 </v>
   <v>       0.00097656 </v>
   <v>       0.00048828 </v>
   <v>       0.00048828 </v>
   <v>       0.00097656 </v>
   <v>       0.00048828 </v>
   <v>       0.00024414 </v>
   <v>       0.00048828 </v>
   <v>       0.00097656 </v>
   <v>       0.00097656 </v>
   <v>       0.00097656 </v>
   <v>       0.00097656 </v>
   <v>       0.00097656 </v>
   <v>       0.00097656 </v>
   <v>       0.00097656 </v>
   <v>       0.00097656 </v>
   <v>       0.00097656 </v>
   <v>       0.00097656 </v>
   <v>       0.00097656 </v>
   <v>       0.00097656 </v>
   <v>       0.00097656 </v>
   <v>       0.00097656 </v>
   <v>       0.00097656 </v>
   <v>       0.00048828 </v>
   <v>       0.00097656 </v>
   <v>       0.00097656 </v>
   <v>       0.00097656 </v>
   <v>       0.00097656 </v>
   <v>       0.00097656 </v>
   <v>       0.00097656 </v>
   <v>       0.00097656 </v>
   <v>       0.00097656 </v>
   <v>       0.00097656 </v>
   <v>       0.00097656 </v>
   <v>       0.00097656 </v>
   <v>       0.00097656 </v>
   <v>       0.00097656 </v>
   <v>       0.00097656 </v>
   <v>       0.00048828 </v>
   <v>       0.00097656 </v>
   <v>       0.00097656 </v>
   <v>       0.00097656 </v>
   <v>       0.00097656 </v>
   <v>       0.00097656 </v>
   <v>       0.00097656 </v>
   <v>       0.00097656 </v>
   <v>       0.00097656 </v>
   <v>       0.00097656 </v>
   <v>       0.00097656 </v>
   <v>       0.00097656 </v>
   <v>       0.00097656 </v>
   <v>       0.00097656 </v>
   <v>       0.00048828 </v>
   <v>       0.00097656 </v>
   <v>       0.00097656 </v>
   <v>       0.00097656 </v>
   <v>       0.00097656 </v>
   <v>       0.00097656 </v>
   <v>       0.00097656 </v>
   <v>       0.00097656 </v>
   <v>       0.00097656 </v>
   <v>       0.00097656 </v>
   <v>       0.00097656 </v>
   <v>       0.00097656 </v>
   <v>       0.00097656 </v>
   <v>       0.00048828 </v>
   <v>       0.00097656 </v>
   <v>       0.00097656 </v>
   <v>       0.00097656 </v>
   <v>       0.00097656 </v>
   <v>       0.00097656 </v>
   <v>       0.00097656 </v>
   <v>       0.00097656 </v>
   <v>       0.00097656 </v>
   <v>       0.00097656 </v>
   <v>       0.00097656 </v>
   <v>       0.00097656 </v>
   <v>       0.00048828 </v>
   <v>       0.00097656 </v>
   <v>       0.00097656 </v>
   <v>       0.00097656 </v>
   <v>       0.00097656 </v>
   <v>       0.00097656 </v>
   <v>       0.00097656 </v>
   <v>       0.00097656 </v>
   <v>       0.00097656 </v>
   <v>       0.00097656 </v>
   <v>       0.00097656 </v>
   <v>       0.00048828 </v>
   <v>       0.00097656 </v>
   <v>       0.00097656 </v>
   <v>       0.00097656 </v>
   <v>       0.00097656 </v>
   <v>       0.00097656 </v>
   <v>       0.00097656 </v>
   <v>       0.00097656 </v>
   <v>       0.00097656 </v>
   <v>       0.00097656 </v>
   <v>       0.00048828 </v>
   <v>       0.00097656 </v>
   <v>       0.00097656 </v>
   <v>       0.00097656 </v>
   <v>       0.00097656 </v>
   <v>       0.00097656 </v>
   <v>       0.00097656 </v>
   <v>       0.00097656 </v>
   <v>       0.00097656 </v>
   <v>       0.00048828 </v>
   <v>       0.00097656 </v>
   <v>       0.00097656 </v>
   <v>       0.00097656 </v>
   <v>       0.00097656 </v>
   <v>       0.00097656 </v>
   <v>       0.00097656 </v>
   <v>       0.00097656 </v>
   <v>       0.00048828 </v>
   <v>       0.00097656 </v>
   <v>       0.00097656 </v>
   <v>       0.00097656 </v>
   <v>       0.00097656 </v>
   <v>       0.00097656 </v>
   <v>       0.00097656 </v>
   <v>       0.00048828 </v>
   <v>       0.00097656 </v>
   <v>       0.00097656 </v>
   <v>       0.00097656 </v>
   <v>       0.00097656 </v>
   <v>       0.00097656 </v>
   <v>       0.00048828 </v>
   <v>       0.00097656 </v>
   <v>       0.00097656 </v>
   <v>       0.00097656 </v>
   <v>       0.00097656 </v>
   <v>       0.00048828 </v>
   <v>       0.00097656 </v>
   <v>       0.00097656 </v>
   <v>       0.00097656 </v>
   <v>       0.00048828 </v>
   <v>       0.00097656 </v>
   <v>       0.00097656 </v>
   <v>       0.00048828 </v>
   <v>       0.00097656 </v>
   <v>       0.00048828 </v>
   <v>       0.00048828 </v>
   <v>       0.00097656 </v>
   <v>       0.00097656 </v>
   <v>       0.00097656 </v>
   <v>       0.00097656 </v>
   <v>       0.00097656 </v>
   <v>       0.00097656 </v>
   <v>       0.00097656 </v>
   <v>       0.00097656 </v>
   <v>       0.00097656 </v>
   <v>       0.00097656 </v>
   <v>       0.00097656 </v>
   <v>       0.00097656 </v>
   <v>       0.00097656 </v>
   <v>       0.00097656 </v>
   <v>       0.00097656 </v>
   <v>       0.00048828 </v>
   <v>       0.00097656 </v>
   <v>       0.00097656 </v>
   <v>       0.00097656 </v>
   <v>       0.00097656 </v>
   <v>       0.00097656 </v>
   <v>       0.00097656 </v>
   <v>       0.00097656 </v>
   <v>       0.00097656 </v>
   <v>       0.00097656 </v>
   <v>       0.00097656 </v>
   <v>       0.00097656 </v>
   <v>       0.00097656 </v>
   <v>       0.00097656 </v>
   <v>       0.00097656 </v>
   <v>       0.00048828 </v>
   <v>       0.00097656 </v>
   <v>       0.00097656 </v>
   <v>       0.00097656 </v>
   <v>       0.00097656 </v>
   <v>       0.00097656 </v>
   <v>       0.00097656 </v>
   <v>       0.00097656 </v>
   <v>       0.00097656 </v>
   <v>       0.00097656 </v>
   <v>       0.00097656 </v>
   <v>       0.00097656 </v>
   <v>       0.00097656 </v>
   <v>       0.00097656 </v>
   <v>       0.00048828 </v>
   <v>       0.00097656 </v>
   <v>       0.00097656 </v>
   <v>       0.00097656 </v>
   <v>       0.00097656 </v>
   <v>       0.00097656 </v>
   <v>       0.00097656 </v>
   <v>       0.00097656 </v>
   <v>       0.00097656 </v>
   <v>       0.00097656 </v>
   <v>       0.00097656 </v>
   <v>       0.00097656 </v>
   <v>       0.00097656 </v>
   <v>       0.00048828 </v>
   <v>       0.00097656 </v>
   <v>       0.00097656 </v>
   <v>       0.00097656 </v>
   <v>       0.00097656 </v>
   <v>       0.00097656 </v>
   <v>       0.00097656 </v>
   <v>       0.00097656 </v>
   <v>       0.00097656 </v>
   <v>       0.00097656 </v>
   <v>       0.00097656 </v>
[...]
       <r>    8.0966    0.0000 </r>
       <r>    8.6633    0.0000 </r>
       <r>    9.4747    0.0000 </r>
       <r>   10.1290    0.0000 </r>
       <r>   12.2095    0.0000 </r>
       <r>   13.2944    0.0000 </r>
       <r>   15.6459    0.0000 </r>
      </set>
      <set comment="kpoint 1060">
       <r>   -4.3845    1.0000 </r>
       <r>    0.4674    1.0000 </r>
       <r>    0.9969    1.0000 </r>
       <r>    1.8837    1.0000 </r>
       <r>    4.1748    1.0000 </r>
       <r>    7.8972    0.0000 </r>
       <r>    8.2720    0.0000 </r>
       <r>    9.1289    0.0000 </r>
       <r>    9.9068    0.0000 </r>
       <r>   12.8214    0.0000 </r>
       <r>   13.7562    0.0000 </r>
       <r>   16.4469    0.0000 </r>
      </set>
      <set comment="kpoint 1061">
       <r>   -4.7594    1.0000 </r>
       <r>    0.3366    1.0000 </r>
       <r>    1.4202    1.0000 </r>
       <r>    2.3426    1.0000 </r>
       <r>    4.6492    1.0000 </r>
       <r>    7.6067    0.0000 </r>
       <r>    7.9384    0.0000 </r>
       <r>    8.7624    0.0000 </r>
       <r>    9.4867    0.0000 </r>
       <r>   13.3087    0.0000 </r>
       <r>   14.2535    0.0000 </r>
       <r>   16.1758    0.0000 </r>
      </set>
      <set comment="kpoint 1062">
       <r>   -5.0550    1.0000 </r>
       <r>   -0.2351    1.0000 </r>
       <r>    2.3534    1.0000 </r>
       <r>    2.9324    1.0000 </r>
       <r>    5.1482    1.0000 </r>
       <r>    7.2678    0.0000 </r>
       <r>    7.7071    0.0000 </r>
       <r>    8.3667    0.0000 </r>
       <r>    8.9037    0.0000 </r>
       <r>   13.5452    0.0000 </r>
       <r>   14.6437    0.0000 </r>
       <r>   15.9170    0.0000 </r>
      </set>
      <set comment="kpoint 1063">
       <r>   -5.1837    1.0000 </r>
       <r>   -0.4936    1.0000 </r>
       <r>    2.6983    1.0000 </r>
       <r>    3.4635    1.0000 </r>
       <r>    5.4051    1.0000 </r>
       <r>    7.1228    0.0000 </r>
       <r>    7.5953    0.0000 </r>
       <r>    8.0649    0.0000 </r>
       <r>    8.5791    0.0000 </r>
       <r>   13.5452    0.0000 </r>
       <r>   14.4332    0.0000 </r>
       <r>   16.9828    0.0000 </r>
      </set>
      <set comment="kpoint 1064">
       <r>   -5.0150    1.0000 </r>
       <r>   -0.1498    1.0000 </r>
       <r>    2.0927    1.0000 </r>
       <r>    2.9793    1.0000 </r>
       <r>    5.0593    1.0000 </r>
       <r>    7.3512    0.0000 </r>
       <r>    7.7158    0.0000 </r>
       <r>    8.3962    0.0000 </r>
       <r>    9.0092    0.0000 </r>
       <r>   13.4953    0.0000 </r>
       <r>   14.2095    0.0000 </r>
       <r>   16.7214    0.0000 </r>
      </set>
      <set comment="kpoint 1065">
       <r>   -4.7614    1.0000 </r>
       <r>    0.3390    1.0000 </r>
       <r>    1.4194    1.0000 </r>
       <r>    2.3442    1.0000 </r>
       <r>    4.6434    1.0000 </r>
       <r>    7.6169    0.0000 </r>
       <r>    7.9352    0.0000 </r>
       <r>    8.7539    0.0000 </r>
       <r>    9.4946    0.0000 </r>
       <r>   13.3154    0.0000 </r>
       <r>   14.2564    0.0000 </r>
       <r>   16.3447    0.0000 </r>
      </set>
      <set comment="kpoint 1066">
       <r>   -4.4241    1.0000 </r>
       <r>    0.6672    1.0000 </r>
       <r>    0.9346    1.0000 </r>
       <r>    1.7662    1.0000 </r>
       <r>    4.2220    1.0000 </r>
       <r>    7.8534    0.0000 </r>
       <r>    8.2741    0.0000 </r>
       <r>    9.0733    0.0000 </r>
       <r>    9.8979    0.0000 </r>
       <r>   12.9456    0.0000 </r>
       <r>   14.8177    0.0000 </r>
       <r>   16.1146    0.0000 </r>
      </set>
      <set comment="kpoint 1067">
       <r>   -4.0103    1.0000 </r>
       <r>   -0.1357    1.0000 </r>
       <r>    1.3105    1.0000 </r>
       <r>    1.6119    1.0000 </r>
       <r>    3.8359    1.0000 </r>
       <r>    8.0467    0.0000 </r>
       <r>    8.6803    0.0000 </r>
       <r>    9.3620    0.0000 </r>
       <r>   10.1212    0.0000 </r>
       <r>   12.3945    0.0000 </r>
       <r>   14.4334    0.0000 </r>
       <r>   15.2984    0.0000 </r>
      </set>
      <set comment="kpoint 1068">
       <r>   -3.5460    1.0000 </r>
       <r>   -0.8989    1.0000 </r>
       <r>    1.0477    1.0000 </r>
       <r>    2.2255    1.0000 </r>
       <r>    3.4942    1.0000 </r>
       <r>    8.1908    0.0000 </r>
       <r>    9.0729    0.0000 </r>
       <r>    9.6215    0.0000 </r>
       <r>   10.1720    0.0000 </r>
       <r>   11.7885    0.0000 </r>
       <r>   14.1803    0.0000 </r>
       <r>   14.5010    0.0000 </r>
      </set>
      <set comment="kpoint 1069">
       <r>   -3.1422    1.0000 </r>
       <r>   -1.4628    1.0000 </r>
       <r>    0.9140    1.0000 </r>
       <r>    2.7411    1.0000 </r>
       <r>    3.1695    1.0000 </r>
       <r>    8.2692    0.0000 </r>
       <r>    9.3431    0.0000 </r>
       <r>    9.8259    0.0000 </r>
       <r>   10.1115    0.0000 </r>
       <r>   11.3605    0.0000 </r>
       <r>   13.9487    0.0000 </r>
       <r>   14.2402    0.0000 </r>
      </set>
      <set comment="kpoint 1070">
       <r>   -3.1412    1.0000 </r>
       <r>   -1.4636    1.0000 </r>
       <r>    0.9154    1.0000 </r>
       <r>    2.7301    1.0000 </r>
       <r>    3.1796    1.0000 </r>
       <r>    8.2701    0.0000 </r>
       <r>    9.3375    0.0000 </r>
       <r>    9.8422    0.0000 </r>
       <r>   10.0985    0.0000 </r>
       <r>   11.3597    0.0000 </r>
       <r>   13.9520    0.0000 </r>
       <r>   14.2363    0.0000 </r>
      </set>
      <set comment="kpoint 1071">
       <r>   -3.5442    1.0000 </r>
       <r>   -0.9003    1.0000 </r>
       <r>    1.0524    1.0000 </r>
       <r>    2.2127    1.0000 </r>
       <r>    3.5035    1.0000 </r>
       <r>    8.1929    0.0000 </r>
       <r>    9.0637    0.0000 </r>
       <r>    9.6386    0.0000 </r>
       <r>   10.1596    0.0000 </r>
       <r>   11.7838    0.0000 </r>
       <r>   14.2008    0.0000 </r>
       <r>   14.4795    0.0000 </r>
      </set>
      <set comment="kpoint 1072">
       <r>   -4.0081    1.0000 </r>
       <r>   -0.1371    1.0000 </r>
       <r>    1.3306    1.0000 </r>
       <r>    1.5861    1.0000 </r>
       <r>    3.8436    1.0000 </r>
       <r>    8.0475    0.0000 </r>
       <r>    8.6735    0.0000 </r>
       <r>    9.3741    0.0000 </r>
       <r>   10.1119    0.0000 </r>
       <r>   12.3840    0.0000 </r>
       <r>   14.4684    0.0000 </r>
       <r>   15.1342    0.0000 </r>
      </set>
      <set comment="kpoint 1073">
       <r>   -4.4220    1.0000 </r>
       <r>    0.6665    1.0000 </r>
       <r>    0.9349    1.0000 </r>
       <r>    1.7617    1.0000 </r>
       <r>    4.2284    1.0000 </r>
       <r>    7.8495    0.0000 </r>
       <r>    8.2722    0.0000 </r>
       <r>    9.0824    0.0000 </r>
       <r>    9.8900    0.0000 </r>
       <r>   12.9311    0.0000 </r>
       <r>   14.4960    0.0000 </r>
       <r>   16.1269    0.0000 </r>
      </set>
      <set comment="kpoint 1074">
       <r>   -4.8901    1.0000 </r>
       <r>    0.0946    1.0000 </r>
       <r>    1.5937    1.0000 </r>
       <r>    2.8510    1.0000 </r>
       <r>    4.8332    1.0000 </r>
       <r>    7.5390    0.0000 </r>
       <r>    7.7674    0.0000 </r>
       <r>    8.5647    0.0000 </r>
       <r>    9.2520    0.0000 </r>
       <r>   13.3339    0.0000 </r>
       <r>   13.7487    0.0000 </r>
       <r>   17.9633    0.0000 </r>
      </set>
      <set comment="kpoint 1075">
       <r>   -4.6807    1.0000 </r>
       <r>    0.4855    1.0000 </r>
       <r>    1.0401    1.0000 </r>
       <r>    2.4472    1.0000 </r>
       <r>    4.5170    1.0000 </r>
       <r>    7.7479    0.0000 </r>
       <r>    7.9373    0.0000 </r>
       <r>    8.8419    0.0000 </r>
       <r>    9.5832    0.0000 </r>
       <r>   13.1195    0.0000 </r>
       <r>   13.5603    0.0000 </r>
       <r>   17.5912    0.0000 </r>
      </set>
      <set comment="kpoint 1076">
       <r>   -4.3870    1.0000 </r>
       <r>    0.4646    1.0000 </r>
       <r>    1.0000    1.0000 </r>
       <r>    1.8881    1.0000 </r>
       <r>    4.1685    1.0000 </r>
       <r>    7.8989    0.0000 </r>
       <r>    8.2743    0.0000 </r>
       <r>    9.1210    0.0000 </r>
       <r>    9.9177    0.0000 </r>
       <r>   12.8270    0.0000 </r>
       <r>   13.7696    0.0000 </r>
       <r>   16.6528    0.0000 </r>
      </set>
      <set comment="kpoint 1077">
       <r>   -4.0107    1.0000 </r>
       <r>   -0.1372    1.0000 </r>
       <r>    1.3139    1.0000 </r>
       <r>    1.6093    1.0000 </r>
       <r>    3.8364    1.0000 </r>
       <r>    8.0456    0.0000 </r>
       <r>    8.6801    0.0000 </r>
       <r>    9.3639    0.0000 </r>
       <r>   10.1227    0.0000 </r>
       <r>   12.3949    0.0000 </r>
       <r>   14.4663    0.0000 </r>
       <r>   15.1361    0.0000 </r>
      </set>
      <set comment="kpoint 1078">
       <r>   -3.5611    1.0000 </r>
       <r>   -0.7809    1.0000 </r>
       <r>    0.9034    1.0000 </r>
       <r>    2.1933    1.0000 </r>
       <r>    3.5499    1.0000 </r>
       <r>    8.1768    0.0000 </r>
       <r>    9.1096    0.0000 </r>
       <r>    9.5779    0.0000 </r>
       <r>   10.1702    0.0000 </r>
       <r>   11.8463    0.0000 </r>
       <r>   14.1354    0.0000 </r>
       <r>   16.0884    0.0000 </r>
      </set>
      <set comment="kpoint 1079">
       <r>   -3.0753    1.0000 </r>
       <r>   -1.4084    1.0000 </r>
       <r>    0.6555    1.0000 </r>
       <r>    2.7030    1.0000 </r>
       <r>    3.3069    1.0000 </r>
       <r>    8.2664    0.0000 </r>
       <r>    9.5168    0.0000 </r>
       <r>    9.7599    0.0000 </r>
       <r>   10.1197    0.0000 </r>
       <r>   11.2760    0.0000 </r>
       <r>   13.5060    0.0000 </r>
       <r>   15.6158    0.0000 </r>
      </set>
      <set comment="kpoint 1080">
       <r>   -2.7739    1.0000 </r>
       <r>   -1.7622    1.0000 </r>
       <r>    0.5754    1.0000 </r>
       <r>    3.0522    1.0000 </r>
       <r>    3.0659    1.0000 </r>
       <r>    8.2984    0.0000 </r>
       <r>    9.7210    0.0000 </r>
       <r>    9.8744    0.0000 </r>
       <r>   10.0569    0.0000 </r>
       <r>   10.9797    0.0000 </r>
       <r>   13.3045    0.0000 </r>
       <r>   15.5717    0.0000 </r>
      </set>
      <set comment="kpoint 1081">
       <r>   -3.0733    1.0000 </r>
       <r>   -1.4099    1.0000 </r>
       <r>    0.6577    1.0000 </r>
       <r>    2.6906    1.0000 </r>
       <r>    3.3177    1.0000 </r>
       <r>    8.2688    0.0000 </r>
       <r>    9.4966    0.0000 </r>
       <r>    9.7947    0.0000 </r>
       <r>   10.1005    0.0000 </r>
       <r>   11.2731    0.0000 </r>
       <r>   13.5057    0.0000 </r>
       <r>   15.5984    0.0000 </r>
      </set>
      <set comment="kpoint 1082">
       <r>   -3.5586    1.0000 </r>
       <r>   -0.7821    1.0000 </r>
       <r>    0.9080    1.0000 </r>
       <r>    2.1809    1.0000 </r>
       <r>    3.5586    1.0000 </r>
       <r>    8.1801    0.0000 </r>
       <r>    9.0981    0.0000 </r>
       <r>    9.5950    0.0000 </r>
       <r>   10.1578    0.0000 </r>
       <r>   11.8382    0.0000 </r>
       <r>   14.1167    0.0000 </r>
       <r>   15.8951    0.0000 </r>
      </set>
      <set comment="kpoint 1083">
       <r>   -4.5186    1.0000 </r>
       <r>    0.5471    1.0000 </r>
       <r>    0.7806    1.0000 </r>
       <r>    2.3647    1.0000 </r>
       <r>    4.2948    1.0000 </r>
       <r>    7.9420    0.0000 </r>
       <r>    8.0014    0.0000 </r>
       <r>    9.0342    0.0000 </r>
       <r>    9.7513    0.0000 </r>
       <r>   12.7923    0.0000 </r>
       <r>   13.0987    0.0000 </r>
       <r>   18.5302    0.0000 </r>
      </set>
      <set comment="kpoint 1084">
       <r>   -4.2746    1.0000 </r>
       <r>    0.0591    1.0000 </r>
       <r>    1.1848    1.0000 </r>
       <r>    2.0396    1.0000 </r>
       <r>    4.0214    1.0000 </r>
       <r>    8.0055    0.0000 </r>
       <r>    8.3050    0.0000 </r>
       <r>    9.2693    0.0000 </r>
       <r>    9.9756    0.0000 </r>
       <r>   12.5405    0.0000 </r>
       <r>   12.9191    0.0000 </r>
       <r>   18.4723    0.0000 </r>
      </set>
      <set comment="kpoint 1085">
       <r>   -3.9496    1.0000 </r>
       <r>   -0.4201    1.0000 </r>
       <r>    1.5389    1.0000 </r>
       <r>    1.7023    1.0000 </r>
       <r>    3.7427    1.0000 </r>
       <r>    8.0919    0.0000 </r>
       <r>    8.6679    0.0000 </r>
       <r>    9.4689    0.0000 </r>
       <r>   10.1421    0.0000 </r>
       <r>   12.2174    0.0000 </r>
       <r>   13.3126    0.0000 </r>
       <r>   15.6299    0.0000 </r>
      </set>
      <set comment="kpoint 1086">
       <r>   -3.5469    1.0000 </r>
       <r>   -0.9009    1.0000 </r>
       <r>    1.0500    1.0000 </r>
       <r>    2.2224    1.0000 </r>
       <r>    3.4972    1.0000 </r>
       <r>    8.1878    0.0000 </r>
       <r>    9.0702    0.0000 </r>
       <r>    9.6303    0.0000 </r>
       <r>   10.1715    0.0000 </r>
       <r>   11.7950    0.0000 </r>
       <r>   14.2699    0.0000 </r>
       <r>   14.4096    0.0000 </r>
      </set>
      <set comment="kpoint 1087">
       <r>   -3.0759    1.0000 </r>
       <r>   -1.4091    1.0000 </r>
       <r>    0.6559    1.0000 </r>
       <r>    2.7009    1.0000 </r>
       <r>    3.3096    1.0000 </r>
       <r>    8.2647    0.0000 </r>
       <r>    9.5088    0.0000 </r>
       <r>    9.7756    0.0000 </r>
       <r>   10.1141    0.0000 </r>
       <r>   11.2813    0.0000 </r>
       <r>   13.5055    0.0000 </r>
       <r>   15.6141    0.0000 </r>
      </set>
      <set comment="kpoint 1088">
       <r>   -2.5668    1.0000 </r>
       <r>   -1.9367    1.0000 </r>
       <r>    0.4464    1.0000 </r>
       <r>    3.0231    1.0000 </r>
       <r>    3.1785    1.0000 </r>
       <r>    8.3048    0.0000 </r>
       <r>    9.8612    0.0000 </r>
       <r>    9.9486    0.0000 </r>
       <r>   10.1049    0.0000 </r>
       <r>   10.7133    0.0000 </r>
       <r>   13.0471    0.0000 </r>
       <r>   17.1575    0.0000 </r>
      </set>
      <set comment="kpoint 1089">
       <r>   -2.5647    1.0000 </r>
       <r>   -1.9383    1.0000 </r>
       <r>    0.4471    1.0000 </r>
       <r>    3.0118    1.0000 </r>
       <r>    3.1891    1.0000 </r>
       <r>    8.3064    0.0000 </r>
       <r>    9.8362    0.0000 </r>
       <r>   10.0012    0.0000 </r>
       <r>   10.0752    0.0000 </r>
       <r>   10.7101    0.0000 </r>
       <r>   13.0476    0.0000 </r>
       <r>   17.1468    0.0000 </r>
      </set>
      <set comment="kpoint 1090">
       <r>   -4.0881    1.0000 </r>
       <r>   -0.3745    1.0000 </r>
       <r>    1.4798    1.0000 </r>
       <r>    2.0125    1.0000 </r>
       <r>    3.8115    1.0000 </r>
       <r>    8.0933    0.0000 </r>
       <r>    8.4425    0.0000 </r>
       <r>    9.4901    0.0000 </r>
       <r>   10.0814    0.0000 </r>
       <r>   12.1823    0.0000 </r>
       <r>   12.4359    0.0000 </r>
       <r>   17.4228    0.0000 </r>
      </set>
      <set comment="kpoint 1091">
       <r>   -3.8307    1.0000 </r>
       <r>   -0.7792    1.0000 </r>
       <r>    1.7571    1.0000 </r>
       <r>    1.8712    1.0000 </r>
       <r>    3.5778    1.0000 </r>
       <r>    8.1519    0.0000 </r>
       <r>    8.6861    0.0000 </r>
       <r>    9.6762    0.0000 </r>
       <r>   10.1878    0.0000 </r>
       <r>   11.9802    0.0000 </r>
       <r>   12.3453    0.0000 </r>
       <r>   16.4083    0.0000 </r>
      </set>
      <set comment="kpoint 1092">
       <r>   -3.5099    1.0000 </r>
       <r>   -1.1405    1.0000 </r>
       <r>    1.3551    1.0000 </r>
       <r>    2.3062    1.0000 </r>
       <r>    3.3569    1.0000 </r>
       <r>    8.2116    0.0000 </r>
       <r>    8.9877    0.0000 </r>
       <r>    9.7830    0.0000 </r>
       <r>   10.1783    0.0000 </r>
       <r>   11.7026    0.0000 </r>
       <r>   12.9881    0.0000 </r>
       <r>   15.1474    0.0000 </r>
      </set>
      <set comment="kpoint 1093">
       <r>   -3.1437    1.0000 </r>
       <r>   -1.4649    1.0000 </r>
       <r>    0.9155    1.0000 </r>
       <r>    2.7332    1.0000 </r>
       <r>    3.1784    1.0000 </r>
       <r>    8.2642    0.0000 </r>
       <r>    9.3363    0.0000 </r>
       <r>    9.8499    0.0000 </r>
       <r>   10.1010    0.0000 </r>
       <r>   11.3728    0.0000 </r>
       <r>   14.0454    0.0000 </r>
       <r>   14.1386    0.0000 </r>
      </set>
      <set comment="kpoint 1094">
       <r>   -2.7758    1.0000 </r>
       <r>   -1.7621    1.0000 </r>
       <r>    0.5751    1.0000 </r>
       <r>    3.0513    1.0000 </r>
       <r>    3.0681    1.0000 </r>
       <r>    8.2951    0.0000 </r>
       <r>    9.7019    0.0000 </r>
       <r>    9.9239    0.0000 </r>
       <r>   10.0296    0.0000 </r>
       <r>   10.9896    0.0000 </r>
       <r>   13.3030    0.0000 </r>
       <r>   15.5723    0.0000 </r>
      </set>
      <set comment="kpoint 1095">
       <r>   -3.6639    1.0000 </r>
       <r>   -1.1032    1.0000 </r>
       <r>    1.7994    1.0000 </r>
       <r>    2.1200    1.0000 </r>
       <r>    3.3785    1.0000 </r>
       <r>    8.1957    0.0000 </r>
       <r>    8.7717    0.0000 </r>
       <r>    9.9032    0.0000 </r>
       <r>   10.2651    0.0000 </r>
       <r>   11.7014    0.0000 </r>
       <r>   11.8700    0.0000 </r>
       <r>   16.8410    0.0000 </r>
      </set>
      <set comment="kpoint 1096">
       <r>   -3.4694    1.0000 </r>
       <r>   -1.3417    1.0000 </r>
       <r>    1.6234    1.0000 </r>
       <r>    2.4183    1.0000 </r>
       <r>    3.1890    1.0000 </r>
       <r>    8.2277    0.0000 </r>
       <r>    8.9195    0.0000 </r>
       <r>   10.0147    0.0000 </r>
       <r>   10.2137    0.0000 </r>
       <r>   11.6393    0.0000 </r>
       <r>   11.9748    0.0000 </r>
       <r>   16.0775    0.0000 </r>
      </set>
      <set comment="kpoint 1097">
       <r>   -3.2821    1.0000 </r>
       <r>   -1.4637    1.0000 </r>
       <r>    1.2895    1.0000 </r>
       <r>    2.6773    1.0000 </r>
       <r>    3.0810    1.0000 </r>
       <r>    8.2530    0.0000 </r>
       <r>    9.1145    0.0000 </r>
       <r>    9.9866    0.0000 </r>
       <r>   10.0932    0.0000 </r>
       <r>   11.4986    0.0000 </r>
       <r>   12.8703    0.0000 </r>
       <r>   14.9780    0.0000 </r>
      </set>
      <set comment="kpoint 1098">
       <r>   -3.4514    1.0000 </r>
       <r>   -1.4183    1.0000 </r>
       <r>    1.7281    1.0000 </r>
       <r>    2.4818    1.0000 </r>
       <r>    3.1027    1.0000 </r>
       <r>    8.2317    0.0000 </r>
       <r>    8.8957    0.0000 </r>
       <r>   10.1080    0.0000 </r>
       <r>   10.3237    0.0000 </r>
       <r>   11.5040    0.0000 </r>
       <r>   11.6241    0.0000 </r>
       <r>   16.6389    0.0000 </r>
      </set>
     </set>
    </set>
   </array>
  </eigenvalues>
  <separator name="orbital magnetization" >
   <v name="MAGDIPOLOUT">      0.00000000      0.00000000      0.00000000</v>
  </separator>
 </calculation>
 <structure name="finalpos" >
  <crystal>
   <varray name="basis" >
    <v>       3.03293523       0.00000000       0.00000000 </v>
    <v>      -1.51646762       2.62659896       0.03939898 </v>
    <v>       0.00000000       0.04838534       3.32246020 </v>
   </varray>
   <i name="volume">     26.46194791 </i>
   <varray name="rec_basis" >
    <v>       0.32971360       0.19040183      -0.00277284 </v>
    <v>       0.00000000       0.38080366      -0.00554568 </v>
    <v>       0.00000000      -0.00451571       0.30104755 </v>
   </varray>
  </crystal>
  <varray name="positions" >
   <v>       0.00000000       0.00000000       0.00000000 </v>
   <v>       0.33333333       0.66666667       0.50000000 </v>
   <v>       0.66666667       0.33333333       0.50000000 </v>
  </varray>
 </structure>
</modeling>
