    3    3   50    1
  0.8566316E+01  0.3032970E-09  0.3032970E-09  0.3225881E-09  0.5000000E-15
  1.000000000000000E-004
  CAR 
 unknown system                          
     10    270     12
 
  0.0000000E+00  0.0000000E+00  0.0000000E+00  0.2441406E-03
    1       -7.106393   1.000000
    2        3.774377   1.000000
    3        3.774377   1.000000
    4        4.117684   1.000000
    5        4.267378   1.000000
    6        8.183860   0.000000
    7        8.183860   0.000000
    8        9.985614   0.000000
    9        9.985614   0.000000
   10       12.115662   0.000000
   11       12.115663   0.000000
   12       13.443146   0.000000
 
  0.6250000E-01  0.3469447E-17  0.0000000E+00  0.1464844E-02
    1       -7.033102   1.000000
    2        3.557411   1.000000
    3        3.762860   1.000000
    4        4.052547   1.000000
    5        4.304904   1.000000
    6        8.162029   0.000000
    7        8.316792   0.000000
    8        9.671999   0.000000
    9        9.717863   0.000000
   10       12.432224   0.000000
   11       12.586538   0.000000
   12       13.672688   0.000000
 
  0.1250000E+00  0.6938894E-17  0.0000000E+00  0.1464844E-02
    1       -6.815005   1.000000
    2        2.961169   1.000000
    3        3.722912   1.000000
    4        3.888581   1.000000
    5        4.406343   1.000000
    6        8.100391   0.000000
    7        8.671264   0.000000
    8        9.099924   0.000000
    9        9.278475   0.000000
   10       12.954697   0.000000
   11       13.646794   0.000000
   12       14.738072   0.000000
 
  0.1875000E+00  0.1387779E-16  0.0000000E+00  0.1464844E-02
    1       -6.457304   1.000000
    2        2.114885   1.000000
    3        3.644744   1.000000
    4        3.687881   1.000000
    5        4.512162   1.000000
    6        8.009800   0.000000
    7        8.635340   0.000000
    8        8.959651   0.000000
    9        9.142012   0.000000
   10       13.344243   0.000000
   11       14.444615   0.000000
   12       15.215332   0.000000
 
  0.2500000E+00  0.1387779E-16  0.0000000E+00  0.1464844E-02
    1       -5.968098   1.000000
    2        1.135558   1.000000
    3        3.500076   1.000000
    4        3.528717   1.000000
    5        4.536801   1.000000
    6        7.905352   0.000000
    7        8.451644   0.000000
    8        8.817361   0.000000
    9        9.593178   0.000000
   10       13.599636   0.000000
   11       13.805381   0.000000
   12       15.735178   0.000000
 
  0.3125000E+00  0.5551115E-16  0.0000000E+00  0.1464844E-02
    1       -5.357669   1.000000
    2        0.100991   1.000000
    3        3.351272   1.000000
    4        3.393139   1.000000
    5        4.443733   1.000000
    6        7.803367   0.000000
    7        8.593391   0.000000
    8        8.821606   0.000000
    9        9.875428   0.000000
   10       13.475100   0.000000
   11       13.744110   0.000000
   12       15.137111   0.000000
 
  0.3750000E+00  0.2775558E-16  0.0000000E+00  0.1464844E-02
    1       -4.637860   1.000000
    2       -0.939878   1.000000
    3        3.249497   1.000000
    4        3.267674   1.000000
    5        4.289526   1.000000
    6        7.718736   0.000000
    7        8.905357   0.000000
    8        8.955044   0.000000
    9        9.925706   0.000000
   10       13.484365   0.000000
   11       13.787150   0.000000
   12       14.853187   0.000000
 
  0.4375000E+00  0.2775558E-16  0.0000000E+00  0.1464844E-02
    1       -3.821754   1.000000
    2       -1.954686   1.000000
    3        3.180164   1.000000
    4        3.192320   1.000000
    5        4.159988   1.000000
    6        7.663076   0.000000
    7        8.994296   0.000000
    8        9.333734   0.000000
    9        9.856702   0.000000
   10       13.652817   0.000000
   11       13.736810   0.000000
   12       14.619871   0.000000
 
  0.5000000E+00  0.2775558E-16  0.0000000E+00  0.7324219E-03
    1       -2.961386   1.000000
    2       -2.882201   1.000000
    3        3.148946   1.000000
    4        3.174115   1.000000
    5        4.110925   1.000000
    6        7.643698   0.000000
    7        9.031148   0.000000
    8        9.499383   0.000000
    9        9.815439   0.000000
   10       13.686417   0.000000
   11       13.742629   0.000000
   12       14.538740   0.000000
 
  0.6250000E-01  0.6250000E-01  0.0000000E+00  0.1464844E-02
    1       -6.887394   1.000000
    2        3.175801   1.000000
    3        3.692360   1.000000
    4        3.939168   1.000000
    5        4.394740   1.000000
    6        8.108954   0.000000
    7        8.571127   0.000000
    8        9.273488   0.000000
    9        9.367721   0.000000
   10       12.923353   0.000000
   11       13.190177   0.000000
   12       14.189694   0.000000
 
  0.1250000E+00  0.6250000E-01  0.0000000E+00  0.2929688E-02
    1       -6.599462   1.000000
    2        2.496339   1.000000
    3        3.529300   1.000000
    4        3.762907   1.000000
    5        4.566230   1.000000
    6        8.000866   0.000000
    7        8.767710   0.000000
    8        9.013962   0.000000
    9        9.051936   0.000000
   10       13.417376   0.000000
   11       14.133468   0.000000
   12       15.043784   0.000000
 
  0.1875000E+00  0.6250000E-01  0.0000000E+00  0.2929688E-02
    1       -6.175912   1.000000
    2        1.616871   1.000000
    3        3.312943   1.000000
    4        3.580431   1.000000
    5        4.736455   1.000000
    6        7.853705   0.000000
    7        8.390599   0.000000
    8        8.917708   0.000000
    9        9.527977   0.000000
   10       13.711759   0.000000
   11       14.018112   0.000000
   12       15.294150   0.000000
 
  0.2500000E+00  0.6250000E-01  0.0000000E+00  0.2929688E-02
    1       -5.625912   1.000000
    2        0.631776   1.000000
    3        3.075220   1.000000
    4        3.427963   1.000000
    5        4.817877   1.000000
    6        7.686012   0.000000
    7        8.277786   0.000000
    8        8.956373   0.000000
    9        9.971757   0.000000
   10       13.543401   0.000000
   11       13.882312   0.000000
   12       15.793438   0.000000
 
  0.3125000E+00  0.6250000E-01  0.0000000E+00  0.2929688E-02
    1       -4.960539   1.000000
    2       -0.393361   1.000000
    3        2.854648   1.000000
    4        3.320011   1.000000
    5        4.785337   1.000000
    6        7.520728   0.000000
    7        8.432061   0.000000
    8        9.106606   0.000000
    9       10.210605   0.000000
   10       13.399331   0.000000
   11       13.943364   0.000000
   12       15.082526   0.000000
 
  0.3750000E+00  0.6250000E-01  0.0000000E+00  0.2929688E-02
    1       -4.192292   1.000000
    2       -1.414842   1.000000
    3        2.686777   1.000000
    4        3.255814   1.000000
    5        4.700004   1.000000
    6        7.385415   0.000000
    7        8.709170   0.000000
    8        9.291371   0.000000
    9       10.245020   0.000000
   10       13.531094   0.000000
   11       13.914279   0.000000
   12       14.870868   0.000000
 
  0.4375000E+00  0.6250000E-01  0.0000000E+00  0.2929688E-02
    1       -3.335214   1.000000
    2       -2.402053   1.000000
    3        2.596640   1.000000
    4        3.227304   1.000000
    5        4.637316   1.000000
    6        7.308308   0.000000
    7        8.910127   0.000000
    8        9.427241   0.000000
    9       10.212110   0.000000
   10       13.695628   0.000000
   11       13.845524   0.000000
   12       14.747396   0.000000
 
  0.1250000E+00  0.1250000E+00  0.0000000E+00  0.1464844E-02
    1       -6.245606   1.000000
    2        1.866884   1.000000
    3        3.098523   1.000000
    4        3.615683   1.000000
    5        4.863782   1.000000
    6        7.791641   0.000000
    7        8.358683   0.000000
    8        8.970110   0.000000
    9        9.545245   0.000000
   10       14.094188   0.000000
   11       14.102083   0.000000
   12       14.544000   0.000000
 
  0.1875000E+00  0.1250000E+00  0.0000000E+00  0.2929688E-02
    1       -5.761046   1.000000
    2        1.076819   1.000000
    3        2.625982   1.000000
    4        3.491242   1.000000
    5        5.174628   1.000000
    6        7.509461   0.000000
    7        8.034967   0.000000
    8        9.060809   0.000000
    9       10.140185   0.000000
   10       13.584074   0.000000
   11       14.355488   0.000000
   12       15.429342   0.000000
 
  0.2500000E+00  0.1250000E+00  0.0000000E+00  0.2929688E-02
    1       -5.155727   1.000000
    2        0.161908   1.000000
    3        2.223257   1.000000
    4        3.411539   1.000000
    5        5.386694   1.000000
    6        7.196842   0.000000
    7        7.952191   0.000000
    8        9.225926   0.000000
    9       10.648699   0.000000
   10       13.295217   0.000000
   11       14.375001   0.000000
   12       15.383608   0.000000
 
  0.3125000E+00  0.1250000E+00  0.0000000E+00  0.2929688E-02
    1       -4.441516   1.000000
    2       -0.813911   1.000000
    3        1.926532   1.000000
    4        3.376807   1.000000
    5        5.446816   1.000000
    6        6.906376   0.000000
    7        8.151807   0.000000
    8        9.351854   0.000000
    9       10.928424   0.000000
   10       13.326624   0.000000
   11       14.321064   0.000000
   12       15.347997   0.000000
 
  0.3750000E+00  0.1250000E+00  0.0000000E+00  0.2929688E-02
    1       -3.632063   1.000000
    2       -1.795085   1.000000
    3        1.745816   1.000000
    4        3.371028   1.000000
    5        5.423018   1.000000
    6        6.697440   0.000000
    7        8.494297   0.000000
    8        9.353443   0.000000
    9       11.002182   0.000000
   10       13.542932   0.000000
   11       14.256632   0.000000
   12       15.304443   0.000000
 
  0.4375000E+00  0.1250000E+00  0.0000000E+00  0.1464844E-02
    1       -2.751937   1.000000
    2       -2.734711   1.000000
    3        1.685128   1.000000
    4        3.372531   1.000000
    5        5.404382   1.000000
    6        6.620885   0.000000
    7        8.697081   0.000000
    8        9.292815   0.000000
    9       11.007157   0.000000
   10       13.660075   0.000000
   11       14.230287   0.000000
   12       15.285014   0.000000
 
  0.1875000E+00  0.1875000E+00  0.0000000E+00  0.1464844E-02
    1       -5.221040   1.000000
    2        0.470840   1.000000
    3        1.881170   1.000000
    4        3.454105   1.000000
    5        5.653779   1.000000
    6        7.059574   0.000000
    7        7.728570   0.000000
    8        9.267311   0.000000
    9       10.843277   0.000000
   10       13.241663   0.000000
   11       14.723269   0.000000
   12       15.904615   0.000000
 
  0.2500000E+00  0.1875000E+00  0.0000000E+00  0.2929688E-02
    1       -4.566698   1.000000
    2       -0.272243   1.000000
    3        1.289847   1.000000
    4        3.478508   1.000000
    5        6.031128   1.000000
    6        6.589052   0.000000
    7        7.644042   0.000000
    8        9.391548   0.000000
    9       11.465099   0.000000
   10       13.102541   0.000000
   11       14.734607   0.000000
   12       16.409065   0.000000
 
  0.3125000E+00  0.1875000E+00  0.0000000E+00  0.2929688E-02
    1       -3.811621   1.000000
    2       -1.147442   1.000000
    3        0.928457   1.000000
    4        3.546032   1.000000
    5        6.176226   1.000000
    6        6.185629   1.000000
    7        7.898150   0.000000
    8        9.329495   0.000000
    9       11.798767   0.000000
   10       13.265053   0.000000
   11       14.748015   0.000000
   12       16.072812   0.000000
 
  0.3750000E+00  0.1875000E+00  0.0000000E+00  0.2929688E-02
    1       -2.974761   1.000000
    2       -2.066350   1.000000
    3        0.762398   1.000000
    4        3.607596   1.000000
    5        5.944611   1.000000
    6        6.183265   1.000000
    7        8.296526   0.000000
    8        9.104344   0.000000
    9       11.879725   0.000000
   10       13.520556   0.000000
   11       14.787714   0.000000
   12       16.096991   0.000000
 
  0.2500000E+00  0.2500000E+00  0.0000000E+00  0.1464844E-02
    1       -3.871645   1.000000
    2       -0.742326   1.000000
    3        0.464113   1.000000
    4        3.632706   1.000000
    5        5.980366   1.000000
    6        6.646204   0.000000
    7        7.469465   0.000000
    8        9.324264   0.000000
    9       12.249093   0.000000
   10       13.012530   0.000000
   11       14.995401   0.000000
   12       16.874894   0.000000
 
  0.3125000E+00  0.2500000E+00  0.0000000E+00  0.2929688E-02
    1       -3.090615   1.000000
    2       -1.403482   1.000000
    3       -0.030838   1.000000
    4        3.836825   1.000000
    5        5.478834   1.000000
    6        6.924734   0.000000
    7        7.710533   0.000000
    8        9.012107   0.000000
    9       12.637915   0.000000
   10       13.221275   0.000000
   11       15.288632   0.000000
   12       16.806163   0.000000
 
  0.3750000E+00  0.2500000E+00  0.0000000E+00  0.1464844E-02
    1       -2.357492   1.000000
    2       -2.122651   1.000000
    3       -0.171969   1.000000
    4        3.953100   1.000000
    5        5.259552   1.000000
    6        6.934114   0.000000
    7        8.072709   0.000000
    8        8.703830   0.000000
    9       12.671874   0.000000
   10       13.439362   0.000000
   11       15.444257   0.000000
   12       16.764937   0.000000
 
  0.3125000E+00  0.3125000E+00  0.0000000E+00  0.1464844E-02
    1       -2.332672   1.000000
    2       -1.689901   1.000000
    3       -0.756242   1.000000
    4        4.232072   1.000000
    5        4.863214   1.000000
    6        7.601565   0.000000
    7        7.630532   0.000000
    8        8.509329   0.000000
    9       13.167817   0.000000
   10       13.236419   0.000000
   11       15.906844   0.000000
   12       16.637405   0.000000
 
  0.0000000E+00  0.0000000E+00  0.6250000E-01  0.4882812E-03
    1       -7.057278   1.000000
    2        3.399539   1.000000
    3        3.816111   1.000000
    4        3.816111   1.000000
    5        4.926968   1.000000
    6        8.051203   0.000000
    7        8.051203   0.000000
    8        9.897067   0.000000
    9        9.897067   0.000000
   10       12.313104   0.000000
   11       12.313104   0.000000
   12       13.428718   0.000000
 
  0.6250000E-01  0.3469447E-17  0.6250000E-01  0.2929688E-02
    1       -6.984532   1.000000
    2        3.402617   1.000000
    3        3.595644   1.000000
    4        3.800071   1.000000
    5        4.887533   1.000000
    6        8.017985   0.000000
    7        8.173043   0.000000
    8        9.657417   0.000000
    9        9.703384   0.000000
   10       12.568294   0.000000
   11       12.726109   0.000000
   12       13.647371   0.000000
 
  0.1250000E+00  0.6938894E-17  0.6250000E-01  0.2929688E-02
    1       -6.768107   1.000000
    2        2.989588   1.000000
    3        3.398777   1.000000
    4        3.746521   1.000000
    5        4.816073   1.000000
    6        7.937169   0.000000
    7        8.422259   0.000000
    8        9.270640   0.000000
    9        9.366353   0.000000
   10       13.005001   0.000000
   11       13.705450   0.000000
   12       14.246625   0.000000
 
  0.1875000E+00  0.1387779E-16  0.6250000E-01  0.2929688E-02
    1       -6.413216   1.000000
    2        2.131534   1.000000
    3        3.366691   1.000000
    4        3.647016   1.000000
    5        4.749331   1.000000
    6        7.855836   0.000000
    7        8.427551   0.000000
    8        9.102931   0.000000
    9        9.314990   0.000000
   10       13.327924   0.000000
   11       14.783891   0.000000
   12       15.591275   0.000000
 
  0.2500000E+00  0.1387779E-16  0.6250000E-01  0.2929688E-02
    1       -5.927955   1.000000
    2        1.143914   1.000000
    3        3.309905   1.000000
    4        3.506062   1.000000
    5        4.650422   1.000000
    6        7.810798   0.000000
    7        8.351897   0.000000
    8        8.952962   0.000000
    9        9.665708   0.000000
   10       13.419038   0.000000
   11       13.915825   0.000000
   12       16.133364   0.000000
 
  0.3125000E+00  0.5551115E-16  0.6250000E-01  0.2929688E-02
    1       -5.322533   1.000000
    2        0.106032   1.000000
    3        3.251124   1.000000
    4        3.347562   1.000000
    5        4.487792   1.000000
    6        7.795718   0.000000
    7        8.501626   0.000000
    8        8.910356   0.000000
    9        9.922409   0.000000
   10       13.264166   0.000000
   11       13.867680   0.000000
   12       15.395925   0.000000
 
  0.3750000E+00  0.2775558E-16  0.6250000E-01  0.2929688E-02
    1       -4.608552   1.000000
    2       -0.934067   1.000000
    3        3.204863   1.000000
    4        3.207908   1.000000
    5        4.300927   1.000000
    6        7.785567   0.000000
    7        8.807749   0.000000
    8        8.947689   0.000000
    9       10.013390   0.000000
   10       13.151561   0.000000
   11       13.990952   0.000000
   12       15.148305   0.000000
 
  0.4375000E+00  0.2775558E-16  0.6250000E-01  0.2929688E-02
    1       -3.798552   1.000000
    2       -1.945368   1.000000
    3        3.107064   1.000000
    4        3.184491   1.000000
    5        4.157636   1.000000
    6        7.773710   0.000000
    7        9.009250   0.000000
    8        9.062245   0.000000
    9       10.072386   0.000000
   10       13.035451   0.000000
   11       14.247263   0.000000
   12       14.867653   0.000000
 
  0.5000000E+00  0.2775558E-16  0.6250000E-01  0.1464844E-02
    1       -2.911197   1.000000
    2       -2.900638   1.000000
    3        3.072463   1.000000
    4        3.177516   1.000000
    5        4.104740   1.000000
    6        7.768175   0.000000
    7        9.037638   0.000000
    8        9.140600   0.000000
    9       10.125731   0.000000
   10       12.962570   0.000000
   11       14.536567   0.000000
   12       14.593163   0.000000
 
  0.6250000E-01  0.6250000E-01  0.6250000E-01  0.2929688E-02
    1       -6.839936   1.000000
    2        3.207904   1.000000
    3        3.401982   1.000000
    4        3.724445   1.000000
    5        4.852345   1.000000
    6        7.928753   0.000000
    7        8.398884   0.000000
    8        9.337940   0.000000
    9        9.460965   0.000000
   10       13.002542   0.000000
   11       13.271040   0.000000
   12       14.100871   0.000000
 
  0.1250000E+00  0.6250000E-01  0.6250000E-01  0.5859375E-02
    1       -6.554246   1.000000
    2        2.519611   1.000000
    3        3.383569   1.000000
    4        3.542832   1.000000
    5        4.867699   1.000000
    6        7.765500   0.000000
    7        8.629009   0.000000
    8        9.020543   0.000000
    9        9.328248   0.000000
   10       13.445089   0.000000
   11       14.152450   0.000000
   12       14.823408   0.000000
 
  0.1875000E+00  0.6250000E-01  0.6250000E-01  0.5859375E-02
    1       -6.134096   1.000000
    2        1.630204   1.000000
    3        3.300225   1.000000
    4        3.344479   1.000000
    5        4.908696   1.000000
    6        7.604437   0.000000
    7        8.509081   0.000000
    8        8.942561   0.000000
    9        9.607129   0.000000
   10       13.599264   0.000000
   11       14.068054   0.000000
   12       16.437563   0.000000
 
  0.2500000E+00  0.6250000E-01  0.6250000E-01  0.5859375E-02
    1       -5.588606   1.000000
    2        0.638694   1.000000
    3        3.049723   1.000000
    4        3.291719   1.000000
    5        4.888770   1.000000
    6        7.521099   0.000000
    7        8.436150   0.000000
    8        8.957193   0.000000
    9        9.990792   0.000000
   10       13.362764   0.000000
   11       14.013682   0.000000
   12       15.596978   0.000000
 
  0.3125000E+00  0.6250000E-01  0.6250000E-01  0.5859375E-02
    1       -4.928748   1.000000
    2       -0.388127   1.000000
    3        2.822396   1.000000
    4        3.252248   1.000000
    5        4.782061   1.000000
    6        7.501045   0.000000
    7        8.529209   0.000000
    8        9.061586   0.000000
    9       10.222592   0.000000
   10       13.182090   0.000000
   11       14.095814   0.000000
   12       15.316885   0.000000
 
  0.3750000E+00  0.6250000E-01  0.6250000E-01  0.5859375E-02
    1       -4.166700   1.000000
    2       -1.407399   1.000000
    3        2.652083   1.000000
    4        3.231783   1.000000
    5        4.650294   1.000000
    6        7.472134   0.000000
    7        8.743811   0.000000
    8        9.187069   0.000000
    9       10.307627   0.000000
   10       13.111760   0.000000
   11       14.262552   0.000000
   12       15.091596   0.000000
 
  0.4375000E+00  0.6250000E-01  0.6250000E-01  0.5859375E-02
    1       -3.315725   1.000000
    2       -2.390260   1.000000
    3        2.561256   1.000000
    4        3.225244   1.000000
    5        4.565384   1.000000
    6        7.441480   0.000000
    7        8.922579   0.000000
    8        9.254506   0.000000
    9       10.348648   0.000000
   10       13.040903   0.000000
   11       14.534071   0.000000
   12       14.836394   0.000000
 
  0.1250000E+00  0.1250000E+00  0.6250000E-01  0.2929688E-02
    1       -6.203232   1.000000
    2        1.885983   1.000000
    3        3.088178   1.000000
    4        3.355187   1.000000
    5        5.081138   1.000000
    6        7.449916   0.000000
    7        8.658703   0.000000
    8        8.873119   0.000000
    9        9.620878   0.000000
   10       13.961162   0.000000
   11       14.143622   0.000000
   12       14.607668   0.000000
 
  0.1875000E+00  0.1250000E+00  0.6250000E-01  0.5859375E-02
    1       -5.722670   1.000000
    2        1.089213   1.000000
    3        2.604451   1.000000
    4        3.326136   1.000000
    5        5.319281   1.000000
    6        7.150759   0.000000
    7        8.386970   0.000000
    8        9.029960   0.000000
    9       10.126021   0.000000
   10       13.521551   0.000000
   11       15.076500   0.000000
   12       15.685349   0.000000
 
  0.2500000E+00  0.1250000E+00  0.6250000E-01  0.5859375E-02
    1       -5.122485   1.000000
    2        0.168723   1.000000
    3        2.203680   1.000000
    4        3.314954   1.000000
    5        5.424860   1.000000
    6        6.995698   0.000000
    7        8.233498   0.000000
    8        9.197546   0.000000
    9       10.594685   0.000000
   10       13.178170   0.000000
   11       15.374112   0.000000
   12       16.498761   0.000000
 
  0.3125000E+00  0.1250000E+00  0.6250000E-01  0.5859375E-02
    1       -4.414394   1.000000
    2       -0.807837   1.000000
    3        1.911974   1.000000
    4        3.327965   1.000000
    5        5.352153   1.000000
    6        6.955707   0.000000
    7        8.296234   0.000000
    8        9.312635   0.000000
    9       10.879574   0.000000
   10       13.106838   0.000000
   11       14.606503   0.000000
   12       15.437209   0.000000
 
  0.3750000E+00  0.1250000E+00  0.6250000E-01  0.5859375E-02
    1       -3.611934   1.000000
    2       -1.785421   1.000000
    3        1.734931   1.000000
    4        3.352646   1.000000
    5        5.231290   1.000000
    6        6.911261   0.000000
    7        8.548621   0.000000
    8        9.306913   0.000000
    9       10.991204   0.000000
   10       13.141845   0.000000
   11       14.734188   0.000000
   12       15.344889   0.000000
 
  0.4375000E+00  0.1250000E+00  0.6250000E-01  0.2929688E-02
    1       -2.768613   1.000000
    2       -2.689216   1.000000
    3        1.675543   1.000000
    4        3.365163   1.000000
    5        5.178482   1.000000
    6        6.885335   0.000000
    7        8.722311   0.000000
    8        9.246072   0.000000
    9       11.016779   0.000000
   10       13.158038   0.000000
   11       14.840374   0.000000
   12       15.275095   0.000000
 
  0.1875000E+00  0.1875000E+00  0.6250000E-01  0.2929688E-02
    1       -5.187325   1.000000
    2        0.480825   1.000000
    3        1.861542   1.000000
    4        3.344086   1.000000
    5        5.785407   1.000000
    6        6.679579   0.000000
    7        8.111831   0.000000
    8        9.245949   0.000000
    9       10.763857   0.000000
   10       13.170313   0.000000
   11       15.121675   0.000000
   12       15.795683   0.000000
 
  0.2500000E+00  0.1875000E+00  0.6250000E-01  0.5859375E-02
    1       -4.538843   1.000000
    2       -0.266413   1.000000
    3        1.281473   1.000000
    4        3.407602   1.000000
    5        5.974036   1.000000
    6        6.477272   0.033765
    7        7.938391   0.000000
    8        9.370940   0.000000
    9       11.348906   0.000000
   10       13.012955   0.000000
   11       15.022136   0.000000
   12       15.968139   0.000000
 
  0.3125000E+00  0.1875000E+00  0.6250000E-01  0.5859375E-02
    1       -3.790815   1.000000
    2       -1.141322   1.000000
    3        0.929571   1.000000
    4        3.503669   1.000000
    5        5.678644   1.000000
    6        6.648607   0.000000
    7        8.040663   0.000000
    8        9.313450   0.000000
    9       11.706870   0.000000
   10       13.075099   0.000000
   11       15.082343   0.000000
   12       16.041678   0.000000
 
  0.3750000E+00  0.1875000E+00  0.6250000E-01  0.5859375E-02
    1       -2.963787   1.000000
    2       -2.052923   1.000000
    3        0.767821   1.000000
    4        3.583522   1.000000
    5        5.458256   1.000000
    6        6.695180   0.000000
    7        8.354282   0.000000
    8        9.102249   0.000000
    9       11.827123   0.000000
   10       13.216938   0.000000
   11       15.184968   0.000000
   12       16.072250   0.000000
 
  0.2500000E+00  0.2500000E+00  0.6250000E-01  0.2929688E-02
    1       -3.850610   1.000000
    2       -0.740049   1.000000
    3        0.471245   1.000000
    4        3.576301   1.000000
    5        5.744314   1.000000
    6        6.743994   0.000000
    7        7.733147   0.000000
    8        9.314387   0.000000
    9       12.086058   0.000000
   10       12.941307   0.000000
   11       15.271834   0.000000
   12       16.753180   0.000000
 
  0.3125000E+00  0.2500000E+00  0.6250000E-01  0.5859375E-02
    1       -3.078412   1.000000
    2       -1.400411   1.000000
    3       -0.012130   1.000000
    4        3.789140   1.000000
    5        5.285508   1.000000
    6        7.098349   0.000000
    7        7.845353   0.000000
    8        9.019454   0.000000
    9       12.522267   0.000000
   10       13.072115   0.000000
   11       16.293802   0.000000
   12       17.937428   0.000000
 
  0.3750000E+00  0.2500000E+00  0.6250000E-01  0.2929688E-02
    1       -2.369332   1.000000
    2       -2.096948   1.000000
    3       -0.150635   1.000000
    4        3.910841   1.000000
    5        5.074945   1.000000
    6        7.146130   0.000000
    7        8.145002   0.000000
    8        8.726721   0.000000
    9       12.593957   0.000000
   10       13.234944   0.000000
   11       15.709092   0.000000
   12       16.760273   0.000000
 
  0.3125000E+00  0.3125000E+00  0.6250000E-01  0.2929688E-02
    1       -2.332995   1.000000
    2       -1.695023   1.000000
    3       -0.713950   1.000000
    4        4.167542   1.000000
    5        4.751299   1.000000
    6        7.721833   0.000000
    7        7.748226   0.000000
    8        8.535373   0.000000
    9       13.067070   0.000000
   10       13.087499   0.000000
   11       16.090737   0.000000
   12       18.136961   0.000000
 
  0.0000000E+00  0.0000000E+00  0.1250000E+00  0.4882812E-03
    1       -6.912407   1.000000
    2        2.569801   1.000000
    3        3.940690   1.000000
    4        3.940690   1.000000
    5        5.592941   1.000000
    6        7.724263   0.000000
    7        7.724263   0.000000
    8        9.641522   0.000000
    9        9.641522   0.000000
   10       12.831299   0.000000
   11       12.837464   0.000000
   12       13.389784   0.000000
 
  0.6250000E-01  0.3469447E-17  0.1250000E+00  0.2929688E-02
    1       -6.841366   1.000000
    2        2.595412   1.000000
    3        3.707418   1.000000
    4        3.910102   1.000000
    5        5.503565   1.000000
    6        7.679417   0.000000
    7        7.847036   0.000000
    8        9.532310   0.000000
    9        9.588386   0.000000
   10       12.965959   0.000000
   11       13.131111   0.000000
   12       13.582484   0.000000
 
  0.1250000E+00  0.6938894E-17  0.1250000E+00  0.2929688E-02
    1       -6.630081   1.000000
    2        2.659150   1.000000
    3        3.078400   1.000000
    4        3.813811   1.000000
    5        5.320639   1.000000
    6        7.598182   0.000000
    7        8.042527   0.000000
    8        9.400562   0.000000
    9        9.471276   0.000000
   10       13.190801   0.000000
   11       13.937235   0.000000
   12       14.096114   0.000000
 
  0.1875000E+00  0.1387779E-16  0.1250000E+00  0.2929688E-02
    1       -6.283828   1.000000
    2        2.165462   1.000000
    3        2.783827   1.000000
    4        3.650409   1.000000
    5        5.108739   1.000000
    6        7.574401   0.000000
    7        8.089355   0.000000
    8        9.343023   0.000000
    9        9.533548   0.000000
   10       13.264293   0.000000
   11       14.741965   0.000000
   12       15.775520   0.000000
 
  0.2500000E+00  0.1387779E-16  0.1250000E+00  0.2929688E-02
    1       -5.810693   1.000000
    2        1.164512   1.000000
    3        2.888419   1.000000
    4        3.439984   1.000000
    5        4.858732   1.000000
    6        7.649487   0.000000
    7        8.116463   0.000000
    8        9.226383   0.000000
    9        9.829671   0.000000
   10       13.082836   0.000000
   11       14.132821   0.000000