 vasp.5.4.4.18Apr17-6-g9f103f2a35 (build Nov 22 2017 20:28:56) complex          
  
 executed on             LinuxIFC date 2019.09.11  22:43:18
 running on   28 total cores
 distrk:  each k-point on   28 cores,    1 groups
 distr:  one band on NCORES_PER_BAND=   7 cores,    4 groups


--------------------------------------------------------------------------------------------------------


 INCAR:
 POTCAR:    PAW_PBE Ti 08Apr2002                  
 POTCAR:    PAW_PBE B 06Sep2000                   
 POTCAR:    PAW_PBE Ti 08Apr2002                  
   VRHFIN =Ti: d3 s1                                                            
   LEXCH  = PE                                                                  
   EATOM  =    94.7928 eV,    6.9671 Ry                                         
                                                                                
   TITEL  = PAW_PBE Ti 08Apr2002                                                
   LULTRA =        F    use ultrasoft PP ?                                      
   IUNSCR =        1    unscreen: 0-lin 1-nonlin 2-no                           
   RPACOR =    2.200    partial core radius                                     
   POMASS =   47.880; ZVAL   =    4.000    mass and valenz                      
   RCORE  =    2.800    outmost cutoff radius                                   
   RWIGS  =    2.500; RWIGS  =    1.323    wigner-seitz radius (au A)           
   ENMAX  =  178.330; ENMIN  =  133.747 eV                                      
   RCLOC  =    2.215    cutoff for local pot                                    
   LCOR   =        T    correct aug charges                                     
   LPAW   =        T    paw PP                                                  
   EAUG   =  328.883                                                            
   DEXC   =    0.000                                                            
   RMAX   =    2.868    core radius for proj-oper                               
   RAUG   =    1.300    factor for augmentation sphere                          
   RDEP   =    2.885    radius for radial grids                                 
   RDEPT  =    2.320    core radius for aug-charge                              
                                                                                
   Atomic configuration                                                         
    9 entries                                                                   
     n  l   j            E        occ.                                          
     1  0  0.50     -4865.3608   2.0000                                         
     2  0  0.50      -533.1367   2.0000                                         
     2  1  1.50      -440.5031   6.0000                                         
     3  0  0.50       -59.3186   2.0000                                         
     3  1  1.50       -35.7012   6.0000                                         
     3  2  2.50        -1.9157   3.0000                                         
     4  0  0.50        -3.7291   1.0000                                         
     4  1  1.50        -4.0817   0.0000                                         
     4  3  2.50        -1.3606   0.0000                                         
   Description                                                                  
     l       E           TYP  RCUT    TYP  RCUT                                 
     2     -1.9156924     23  2.800                                             
     2     -0.4062961     23  2.800                                             
     0     -3.7290832     23  2.800                                             
     0     20.4087390     23  2.800                                             
     1     -5.4423304     23  2.800                                             
  local pseudopotential read in
  partial core-charges read in
  partial kinetic energy density read in
  atomic valenz-charges read in
  non local Contribution for L=           2  read in
    real space projection operators read in
  non local Contribution for L=           2  read in
    real space projection operators read in
  non local Contribution for L=           0  read in
    real space projection operators read in
  non local Contribution for L=           0  read in
    real space projection operators read in
  non local Contribution for L=           1  read in
    real space projection operators read in
    PAW grid and wavefunctions read in
 
   number of l-projection  operators is LMAX  =           5
   number of lm-projection operators is LMMAX =          15
 
 POTCAR:    PAW_PBE B 06Sep2000                   
   VRHFIN =B: s2p1                                                              
   LEXCH  = PE                                                                  
   EATOM  =    71.1703 eV,    5.2309 Ry                                         
                                                                                
   TITEL  = PAW_PBE B 06Sep2000                                                 
   LULTRA =        F    use ultrasoft PP ?                                      
   IUNSCR =        1    unscreen: 0-lin 1-nonlin 2-no                           
   RPACOR =    1.200    partial core radius                                     
   POMASS =   10.811; ZVAL   =    3.000    mass and valenz                      
   RCORE  =    1.700    outmost cutoff radius                                   
   RWIGS  =    1.710; RWIGS  =    0.905    wigner-seitz radius (au A)           
   ENMAX  =  318.614; ENMIN  =  238.960 eV                                      
   ICORE  =        2    local potential                                         
   LCOR   =        T    correct aug charges                                     
   LPAW   =        T    paw PP                                                  
   EAUG   =  535.514                                                            
   DEXC   =    0.000                                                            
   RMAX   =    1.732    core radius for proj-oper                               
   RAUG   =    1.300    factor for augmentation sphere                          
   RDEP   =    1.757    radius for radial grids                                 
   RDEPT  =    1.436    core radius for aug-charge                              
                                                                                
   Atomic configuration                                                         
    4 entries                                                                   
     n  l   j            E        occ.                                          
     1  0  0.50      -180.5896   2.0000                                         
     2  0  0.50        -9.4431   2.0000                                         
     2  1  0.50        -3.6068   1.0000                                         
     3  2  1.50        -4.0817   0.0000                                         
   Description                                                                  
     l       E           TYP  RCUT    TYP  RCUT                                 
     0     -9.4430752     23  1.500                                             
     0      0.8675899     23  1.500                                             
     1     -3.6067955     23  1.700                                             
     1      6.1086146     23  1.700                                             
     2     -4.0817478      7  1.700                                             
  local pseudopotential read in
  partial core-charges read in
  partial kinetic energy density read in
  atomic valenz-charges read in
  non local Contribution for L=           0  read in
    real space projection operators read in
  non local Contribution for L=           0  read in
    real space projection operators read in
  non local Contribution for L=           1  read in
    real space projection operators read in
  non local Contribution for L=           1  read in
    real space projection operators read in
    PAW grid and wavefunctions read in
 
   number of l-projection  operators is LMAX  =           4
   number of lm-projection operators is LMMAX =           8
 
  PAW_PBE Ti 08Apr2002                  :
 energy of atom  1       EATOM=  -94.7928
 kinetic energy error for atom=    0.0001 (will be added to EATOM!!)
  PAW_PBE B 06Sep2000                   :
 energy of atom  2       EATOM=  -71.1703
 kinetic energy error for atom=    0.0007 (will be added to EATOM!!)
 
 
 POSCAR: Ti  B                                   
  positions in direct lattice
  No initial velocities read in
 exchange correlation table for  LEXCH =        8
   RHO(1)=    0.500       N(1)  =     2000
   RHO(2)=  100.500       N(2)  =     4000
 


--------------------------------------------------------------------------------------------------------


 ion  position               nearest neighbor table
   1  0.000  0.000  0.000-   3 2.38   3 2.38   2 2.38   2 2.38   3 2.38   3 2.38   2 2.38   2 2.38
                             2 2.38   3 2.38   2 2.38   3 2.38
   2  0.333  0.667  0.500-   3 1.75   3 1.75   3 1.75   1 2.38   1 2.38   1 2.38   1 2.38   1 2.38
                             1 2.38
   3  0.667  0.333  0.500-   2 1.75   2 1.75   2 1.75   1 2.38   1 2.38   1 2.38   1 2.38   1 2.38
                             1 2.38
 
  LATTYP: Found a hexagonal cell.
 ALAT       =     3.0329703936
 C/A-ratio  =     1.0636046397
  
  Lattice vectors:
  
 A1 = (   3.0329703936,   0.0000000000,   0.0000000000)
 A2 = (  -1.5164851968,   2.6266294098,   0.0000000000)
 A3 = (   0.0000000000,   0.0000000000,   3.2258813827)


Analysis of symmetry for initial positions (statically):
=====================================================================
 Subroutine PRICEL returns:
 Original cell was already a primitive cell.
 

 Routine SETGRP: Setting up the symmetry group for a 
 hexagonal supercell.


 Subroutine GETGRP returns: Found 24 space group operations
 (whereof 24 operations were pure point group operations)
 out of a pool of 24 trial point group operations.


The static configuration has the point symmetry D_6h.


Analysis of symmetry for dynamics (positions and initial velocities):
=====================================================================
 Subroutine PRICEL returns:
 Original cell was already a primitive cell.
 

 Routine SETGRP: Setting up the symmetry group for a 
 hexagonal supercell.


 Subroutine GETGRP returns: Found 24 space group operations
 (whereof 24 operations were pure point group operations)
 out of a pool of 24 trial point group operations.


The dynamic configuration has the point symmetry D_6h.


 Subroutine INISYM returns: Found 24 space group operations
 (whereof 24 operations are pure point group operations),
 and found     1 'primitive' translations

 
 
 KPOINTS: A                                       

Automatic generation of k-mesh.
Space group operators:
 irot       det(A)        alpha          n_x          n_y          n_z        tau_x        tau_y        tau_z
    1     1.000000     0.000001     1.000000     0.000000     0.000000     0.000000     0.000000     0.000000
    2    -1.000000     0.000001     1.000000     0.000000     0.000000     0.000000     0.000000     0.000000
    3     1.000000    60.000000     0.000000     0.000000    -1.000000     0.000000     0.000000     0.000000
    4    -1.000000    60.000000     0.000000     0.000000    -1.000000     0.000000     0.000000     0.000000
    5     1.000000   120.000000     0.000000     0.000000    -1.000000     0.000000     0.000000     0.000000
    6    -1.000000   120.000000     0.000000     0.000000    -1.000000     0.000000     0.000000     0.000000
    7     1.000000   180.000000     0.000000     0.000000     1.000000     0.000000     0.000000     0.000000
    8    -1.000000   180.000000     0.000000     0.000000     1.000000     0.000000     0.000000     0.000000
    9     1.000000   120.000000     0.000000     0.000000     1.000000     0.000000     0.000000     0.000000
   10    -1.000000   120.000000     0.000000     0.000000     1.000000     0.000000     0.000000     0.000000
   11     1.000000    60.000000     0.000000     0.000000     1.000000     0.000000     0.000000     0.000000
   12    -1.000000    60.000000     0.000000     0.000000     1.000000     0.000000     0.000000     0.000000
   13     1.000000   180.000000     1.000000     0.000000     0.000000     0.000000     0.000000     0.000000
   14    -1.000000   180.000000     1.000000     0.000000     0.000000     0.000000     0.000000     0.000000
   15     1.000000   180.000000     0.866025    -0.500000     0.000000     0.000000     0.000000     0.000000
   16    -1.000000   180.000000     0.866025    -0.500000     0.000000     0.000000     0.000000     0.000000
   17     1.000000   180.000000     0.500000    -0.866025     0.000000     0.000000     0.000000     0.000000
   18    -1.000000   180.000000     0.500000    -0.866025     0.000000     0.000000     0.000000     0.000000
   19     1.000000   180.000000     0.000000     1.000000     0.000000     0.000000     0.000000     0.000000
   20    -1.000000   180.000000     0.000000     1.000000     0.000000     0.000000     0.000000     0.000000
   21     1.000000   180.000000    -0.500000    -0.866025     0.000000     0.000000     0.000000     0.000000
   22    -1.000000   180.000000    -0.500000    -0.866025     0.000000     0.000000     0.000000     0.000000
   23     1.000000   180.000000     0.866025     0.500000     0.000000     0.000000     0.000000     0.000000
   24    -1.000000   180.000000     0.866025     0.500000     0.000000     0.000000     0.000000     0.000000
 
 Subroutine IBZKPT returns following result:
 ===========================================
 
 Found    270 irreducible k-points:
 
 Following reciprocal coordinates:
            Coordinates               Weight
  0.000000  0.000000  0.000000      1.000000
  0.062500  0.000000  0.000000      6.000000
  0.125000  0.000000  0.000000      6.000000
  0.187500  0.000000  0.000000      6.000000
  0.250000  0.000000  0.000000      6.000000
  0.312500  0.000000  0.000000      6.000000
  0.375000  0.000000  0.000000      6.000000
  0.437500  0.000000  0.000000      6.000000
  0.500000  0.000000  0.000000      3.000000
  0.062500  0.062500  0.000000      6.000000
  0.125000  0.062500  0.000000     12.000000
  0.187500  0.062500  0.000000     12.000000
  0.250000  0.062500  0.000000     12.000000
  0.312500  0.062500  0.000000     12.000000
  0.375000  0.062500  0.000000     12.000000
  0.437500  0.062500  0.000000     12.000000
  0.125000  0.125000  0.000000      6.000000
  0.187500  0.125000  0.000000     12.000000
  0.250000  0.125000  0.000000     12.000000
  0.312500  0.125000  0.000000     12.000000
  0.375000  0.125000  0.000000     12.000000
  0.437500  0.125000  0.000000      6.000000
  0.187500  0.187500  0.000000      6.000000
  0.250000  0.187500  0.000000     12.000000
  0.312500  0.187500  0.000000     12.000000
  0.375000  0.187500  0.000000     12.000000
  0.250000  0.250000  0.000000      6.000000
  0.312500  0.250000  0.000000     12.000000
  0.375000  0.250000  0.000000      6.000000
  0.312500  0.312500  0.000000      6.000000
  0.000000  0.000000  0.062500      2.000000
  0.062500  0.000000  0.062500     12.000000
  0.125000  0.000000  0.062500     12.000000
  0.187500  0.000000  0.062500     12.000000
  0.250000  0.000000  0.062500     12.000000
  0.312500  0.000000  0.062500     12.000000
  0.375000  0.000000  0.062500     12.000000
  0.437500  0.000000  0.062500     12.000000
  0.500000  0.000000  0.062500      6.000000
  0.062500  0.062500  0.062500     12.000000
  0.125000  0.062500  0.062500     24.000000
  0.187500  0.062500  0.062500     24.000000
  0.250000  0.062500  0.062500     24.000000
  0.312500  0.062500  0.062500     24.000000
  0.375000  0.062500  0.062500     24.000000
  0.437500  0.062500  0.062500     24.000000
  0.125000  0.125000  0.062500     12.000000
  0.187500  0.125000  0.062500     24.000000
  0.250000  0.125000  0.062500     24.000000
  0.312500  0.125000  0.062500     24.000000
  0.375000  0.125000  0.062500     24.000000
  0.437500  0.125000  0.062500     12.000000
  0.187500  0.187500  0.062500     12.000000
  0.250000  0.187500  0.062500     24.000000
  0.312500  0.187500  0.062500     24.000000
  0.375000  0.187500  0.062500     24.000000
  0.250000  0.250000  0.062500     12.000000
  0.312500  0.250000  0.062500     24.000000
  0.375000  0.250000  0.062500     12.000000
  0.312500  0.312500  0.062500     12.000000
  0.000000  0.000000  0.125000      2.000000
  0.062500  0.000000  0.125000     12.000000
  0.125000  0.000000  0.125000     12.000000
  0.187500  0.000000  0.125000     12.000000
  0.250000  0.000000  0.125000     12.000000
  0.312500  0.000000  0.125000     12.000000
  0.375000  0.000000  0.125000     12.000000
  0.437500  0.000000  0.125000     12.000000
  0.500000  0.000000  0.125000      6.000000
  0.062500  0.062500  0.125000     12.000000
  0.125000  0.062500  0.125000     24.000000
  0.187500  0.062500  0.125000     24.000000
  0.250000  0.062500  0.125000     24.000000
  0.312500  0.062500  0.125000     24.000000
  0.375000  0.062500  0.125000     24.000000
  0.437500  0.062500  0.125000     24.000000
  0.125000  0.125000  0.125000     12.000000
  0.187500  0.125000  0.125000     24.000000
  0.250000  0.125000  0.125000     24.000000
  0.312500  0.125000  0.125000     24.000000
  0.375000  0.125000  0.125000     24.000000
  0.437500  0.125000  0.125000     12.000000
  0.187500  0.187500  0.125000     12.000000
  0.250000  0.187500  0.125000     24.000000
  0.312500  0.187500  0.125000     24.000000
  0.375000  0.187500  0.125000     24.000000
  0.250000  0.250000  0.125000     12.000000
  0.312500  0.250000  0.125000     24.000000
  0.375000  0.250000  0.125000     12.000000
  0.312500  0.312500  0.125000     12.000000
  0.000000  0.000000  0.187500      2.000000
  0.062500  0.000000  0.187500     12.000000
  0.125000  0.000000  0.187500     12.000000
  0.187500  0.000000  0.187500     12.000000
  0.250000  0.000000  0.187500     12.000000
  0.312500  0.000000  0.187500     12.000000
  0.375000  0.000000  0.187500     12.000000
  0.437500  0.000000  0.187500     12.000000
  0.500000  0.000000  0.187500      6.000000
  0.062500  0.062500  0.187500     12.000000
  0.125000  0.062500  0.187500     24.000000
  0.187500  0.062500  0.187500     24.000000
  0.250000  0.062500  0.187500     24.000000
  0.312500  0.062500  0.187500     24.000000
  0.375000  0.062500  0.187500     24.000000
  0.437500  0.062500  0.187500     24.000000
  0.125000  0.125000  0.187500     12.000000
  0.187500  0.125000  0.187500     24.000000
  0.250000  0.125000  0.187500     24.000000
  0.312500  0.125000  0.187500     24.000000
  0.375000  0.125000  0.187500     24.000000
  0.437500  0.125000  0.187500     12.000000
  0.187500  0.187500  0.187500     12.000000
  0.250000  0.187500  0.187500     24.000000
  0.312500  0.187500  0.187500     24.000000
  0.375000  0.187500  0.187500     24.000000
  0.250000  0.250000  0.187500     12.000000
  0.312500  0.250000  0.187500     24.000000
  0.375000  0.250000  0.187500     12.000000
  0.312500  0.312500  0.187500     12.000000
  0.000000  0.000000  0.250000      2.000000
  0.062500  0.000000  0.250000     12.000000
  0.125000  0.000000  0.250000     12.000000
  0.187500  0.000000  0.250000     12.000000
  0.250000  0.000000  0.250000     12.000000
  0.312500  0.000000  0.250000     12.000000
  0.375000  0.000000  0.250000     12.000000
  0.437500  0.000000  0.250000     12.000000
  0.500000  0.000000  0.250000      6.000000
  0.062500  0.062500  0.250000     12.000000
  0.125000  0.062500  0.250000     24.000000
  0.187500  0.062500  0.250000     24.000000
  0.250000  0.062500  0.250000     24.000000
  0.312500  0.062500  0.250000     24.000000
  0.375000  0.062500  0.250000     24.000000
  0.437500  0.062500  0.250000     24.000000
  0.125000  0.125000  0.250000     12.000000
  0.187500  0.125000  0.250000     24.000000
  0.250000  0.125000  0.250000     24.000000
  0.312500  0.125000  0.250000     24.000000
  0.375000  0.125000  0.250000     24.000000
  0.437500  0.125000  0.250000     12.000000
  0.187500  0.187500  0.250000     12.000000
  0.250000  0.187500  0.250000     24.000000
  0.312500  0.187500  0.250000     24.000000
  0.375000  0.187500  0.250000     24.000000
  0.250000  0.250000  0.250000     12.000000
  0.312500  0.250000  0.250000     24.000000
  0.375000  0.250000  0.250000     12.000000
  0.312500  0.312500  0.250000     12.000000
  0.000000  0.000000  0.312500      2.000000
  0.062500  0.000000  0.312500     12.000000
  0.125000  0.000000  0.312500     12.000000
  0.187500  0.000000  0.312500     12.000000
  0.250000  0.000000  0.312500     12.000000
  0.312500  0.000000  0.312500     12.000000
  0.375000  0.000000  0.312500     12.000000
  0.437500  0.000000  0.312500     12.000000
  0.500000  0.000000  0.312500      6.000000
  0.062500  0.062500  0.312500     12.000000
  0.125000  0.062500  0.312500     24.000000
  0.187500  0.062500  0.312500     24.000000
  0.250000  0.062500  0.312500     24.000000
  0.312500  0.062500  0.312500     24.000000
  0.375000  0.062500  0.312500     24.000000
  0.437500  0.062500  0.312500     24.000000
  0.125000  0.125000  0.312500     12.000000
  0.187500  0.125000  0.312500     24.000000
  0.250000  0.125000  0.312500     24.000000
  0.312500  0.125000  0.312500     24.000000
  0.375000  0.125000  0.312500     24.000000
  0.437500  0.125000  0.312500     12.000000
  0.187500  0.187500  0.312500     12.000000
  0.250000  0.187500  0.312500     24.000000
  0.312500  0.187500  0.312500     24.000000
  0.375000  0.187500  0.312500     24.000000
  0.250000  0.250000  0.312500     12.000000
  0.312500  0.250000  0.312500     24.000000
  0.375000  0.250000  0.312500     12.000000
  0.312500  0.312500  0.312500     12.000000
  0.000000  0.000000  0.375000      2.000000
  0.062500  0.000000  0.375000     12.000000
  0.125000  0.000000  0.375000     12.000000
  0.187500  0.000000  0.375000     12.000000
  0.250000  0.000000  0.375000     12.000000
  0.312500  0.000000  0.375000     12.000000
  0.375000  0.000000  0.375000     12.000000
  0.437500  0.000000  0.375000     12.000000
  0.500000  0.000000  0.375000      6.000000
  0.062500  0.062500  0.375000     12.000000
  0.125000  0.062500  0.375000     24.000000
  0.187500  0.062500  0.375000     24.000000
  0.250000  0.062500  0.375000     24.000000
  0.312500  0.062500  0.375000     24.000000
  0.375000  0.062500  0.375000     24.000000
  0.437500  0.062500  0.375000     24.000000
  0.125000  0.125000  0.375000     12.000000
  0.187500  0.125000  0.375000     24.000000
  0.250000  0.125000  0.375000     24.000000
  0.312500  0.125000  0.375000     24.000000
  0.375000  0.125000  0.375000     24.000000
  0.437500  0.125000  0.375000     12.000000
  0.187500  0.187500  0.375000     12.000000
  0.250000  0.187500  0.375000     24.000000
  0.312500  0.187500  0.375000     24.000000
  0.375000  0.187500  0.375000     24.000000
  0.250000  0.250000  0.375000     12.000000
  0.312500  0.250000  0.375000     24.000000
  0.375000  0.250000  0.375000     12.000000
  0.312500  0.312500  0.375000     12.000000
  0.000000  0.000000  0.437500      2.000000
  0.062500  0.000000  0.437500     12.000000
  0.125000  0.000000  0.437500     12.000000
  0.187500  0.000000  0.437500     12.000000
  0.250000  0.000000  0.437500     12.000000
  0.312500  0.000000  0.437500     12.000000
  0.375000  0.000000  0.437500     12.000000
  0.437500  0.000000  0.437500     12.000000
  0.500000  0.000000  0.437500      6.000000
  0.062500  0.062500  0.437500     12.000000
  0.125000  0.062500  0.437500     24.000000
  0.187500  0.062500  0.437500     24.000000
  0.250000  0.062500  0.437500     24.000000
  0.312500  0.062500  0.437500     24.000000
  0.375000  0.062500  0.437500     24.000000
  0.437500  0.062500  0.437500     24.000000
  0.125000  0.125000  0.437500     12.000000
  0.187500  0.125000  0.437500     24.000000
  0.250000  0.125000  0.437500     24.000000
  0.312500  0.125000  0.437500     24.000000
  0.375000  0.125000  0.437500     24.000000
  0.437500  0.125000  0.437500     12.000000
  0.187500  0.187500  0.437500     12.000000
  0.250000  0.187500  0.437500     24.000000
  0.312500  0.187500  0.437500     24.000000
  0.375000  0.187500  0.437500     24.000000
  0.250000  0.250000  0.437500     12.000000
  0.312500  0.250000  0.437500     24.000000
  0.375000  0.250000  0.437500     12.000000
  0.312500  0.312500  0.437500     12.000000
  0.000000  0.000000  0.500000      1.000000
  0.062500  0.000000  0.500000      6.000000
  0.125000  0.000000  0.500000      6.000000
  0.187500  0.000000  0.500000      6.000000
  0.250000  0.000000  0.500000      6.000000
  0.312500  0.000000  0.500000      6.000000
  0.375000  0.000000  0.500000      6.000000
  0.437500  0.000000  0.500000      6.000000
  0.500000  0.000000  0.500000      3.000000
  0.062500  0.062500  0.500000      6.000000
  0.125000  0.062500  0.500000     12.000000
  0.187500  0.062500  0.500000     12.000000
  0.250000  0.062500  0.500000     12.000000
  0.312500  0.062500  0.500000     12.000000
  0.375000  0.062500  0.500000     12.000000
  0.437500  0.062500  0.500000     12.000000
  0.125000  0.125000  0.500000      6.000000
  0.187500  0.125000  0.500000     12.000000
  0.250000  0.125000  0.500000     12.000000
  0.312500  0.125000  0.500000     12.000000
  0.375000  0.125000  0.500000     12.000000
  0.437500  0.125000  0.500000      6.000000
  0.187500  0.187500  0.500000      6.000000
  0.250000  0.187500  0.500000     12.000000
  0.312500  0.187500  0.500000     12.000000
  0.375000  0.187500  0.500000     12.000000
  0.250000  0.250000  0.500000      6.000000
  0.312500  0.250000  0.500000     12.000000
  0.375000  0.250000  0.500000      6.000000
  0.312500  0.312500  0.500000      6.000000
 
 Following cartesian coordinates:
            Coordinates               Weight
  0.000000  0.000000  0.000000      1.000000
  0.020607  0.011897  0.000000      6.000000
  0.041214  0.023795  0.000000      6.000000
  0.061821  0.035692  0.000000      6.000000
  0.082427  0.047590  0.000000      6.000000
  0.103034  0.059487  0.000000      6.000000
  0.123641  0.071384  0.000000      6.000000
  0.144248  0.083282  0.000000      6.000000
  0.164855  0.095179  0.000000      3.000000
  0.020607  0.035692  0.000000      6.000000
  0.041214  0.047590  0.000000     12.000000
  0.061821  0.059487  0.000000     12.000000
  0.082427  0.071384  0.000000     12.000000
  0.103034  0.083282  0.000000     12.000000
  0.123641  0.095179  0.000000     12.000000
  0.144248  0.107076  0.000000     12.000000
  0.041214  0.071384  0.000000      6.000000
  0.061821  0.083282  0.000000     12.000000
  0.082427  0.095179  0.000000     12.000000
  0.103034  0.107076  0.000000     12.000000
  0.123641  0.118974  0.000000     12.000000
  0.144248  0.130871  0.000000      6.000000
  0.061821  0.107076  0.000000      6.000000
  0.082427  0.118974  0.000000     12.000000
  0.103034  0.130871  0.000000     12.000000
  0.123641  0.142769  0.000000     12.000000
  0.082427  0.142769  0.000000      6.000000
  0.103034  0.154666  0.000000     12.000000
  0.123641  0.166563  0.000000      6.000000
  0.103034  0.178461  0.000000      6.000000
  0.000000  0.000000  0.019375      2.000000
  0.020607  0.011897  0.019375     12.000000
  0.041214  0.023795  0.019375     12.000000
  0.061821  0.035692  0.019375     12.000000
  0.082427  0.047590  0.019375     12.000000
  0.103034  0.059487  0.019375     12.000000
  0.123641  0.071384  0.019375     12.000000
  0.144248  0.083282  0.019375     12.000000
  0.164855  0.095179  0.019375      6.000000
  0.020607  0.035692  0.019375     12.000000
  0.041214  0.047590  0.019375     24.000000
  0.061821  0.059487  0.019375     24.000000
  0.082427  0.071384  0.019375     24.000000
  0.103034  0.083282  0.019375     24.000000
  0.123641  0.095179  0.019375     24.000000
  0.144248  0.107076  0.019375     24.000000
  0.041214  0.071384  0.019375     12.000000
  0.061821  0.083282  0.019375     24.000000
  0.082427  0.095179  0.019375     24.000000
  0.103034  0.107076  0.019375     24.000000
  0.123641  0.118974  0.019375     24.000000
  0.144248  0.130871  0.019375     12.000000
  0.061821  0.107076  0.019375     12.000000
  0.082427  0.118974  0.019375     24.000000
  0.103034  0.130871  0.019375     24.000000
  0.123641  0.142769  0.019375     24.000000
  0.082427  0.142769  0.019375     12.000000
  0.103034  0.154666  0.019375     24.000000
  0.123641  0.166563  0.019375     12.000000
  0.103034  0.178461  0.019375     12.000000
  0.000000  0.000000  0.038749      2.000000
  0.020607  0.011897  0.038749     12.000000
  0.041214  0.023795  0.038749     12.000000
  0.061821  0.035692  0.038749     12.000000
  0.082427  0.047590  0.038749     12.000000
  0.103034  0.059487  0.038749     12.000000
  0.123641  0.071384  0.038749     12.000000
  0.144248  0.083282  0.038749     12.000000
  0.164855  0.095179  0.038749      6.000000
  0.020607  0.035692  0.038749     12.000000
  0.041214  0.047590  0.038749     24.000000
  0.061821  0.059487  0.038749     24.000000
  0.082427  0.071384  0.038749     24.000000
  0.103034  0.083282  0.038749     24.000000
  0.123641  0.095179  0.038749     24.000000
  0.144248  0.107076  0.038749     24.000000
  0.041214  0.071384  0.038749     12.000000
  0.061821  0.083282  0.038749     24.000000
  0.082427  0.095179  0.038749     24.000000
  0.103034  0.107076  0.038749     24.000000
  0.123641  0.118974  0.038749     24.000000
  0.144248  0.130871  0.038749     12.000000
  0.061821  0.107076  0.038749     12.000000
  0.082427  0.118974  0.038749     24.000000
  0.103034  0.130871  0.038749     24.000000
  0.123641  0.142769  0.038749     24.000000
  0.082427  0.142769  0.038749     12.000000
  0.103034  0.154666  0.038749     24.000000
  0.123641  0.166563  0.038749     12.000000
  0.103034  0.178461  0.038749     12.000000
  0.000000  0.000000  0.058124      2.000000
  0.020607  0.011897  0.058124     12.000000
  0.041214  0.023795  0.058124     12.000000
  0.061821  0.035692  0.058124     12.000000
  0.082427  0.047590  0.058124     12.000000
  0.103034  0.059487  0.058124     12.000000
  0.123641  0.071384  0.058124     12.000000
  0.144248  0.083282  0.058124     12.000000
  0.164855  0.095179  0.058124      6.000000
  0.020607  0.035692  0.058124     12.000000
  0.041214  0.047590  0.058124     24.000000
  0.061821  0.059487  0.058124     24.000000
  0.082427  0.071384  0.058124     24.000000
  0.103034  0.083282  0.058124     24.000000
  0.123641  0.095179  0.058124     24.000000
  0.144248  0.107076  0.058124     24.000000
  0.041214  0.071384  0.058124     12.000000
  0.061821  0.083282  0.058124     24.000000
  0.082427  0.095179  0.058124     24.000000
  0.103034  0.107076  0.058124     24.000000
  0.123641  0.118974  0.058124     24.000000
  0.144248  0.130871  0.058124     12.000000
  0.061821  0.107076  0.058124     12.000000
  0.082427  0.118974  0.058124     24.000000
  0.103034  0.130871  0.058124     24.000000
  0.123641  0.142769  0.058124     24.000000
  0.082427  0.142769  0.058124     12.000000
  0.103034  0.154666  0.058124     24.000000
  0.123641  0.166563  0.058124     12.000000
  0.103034  0.178461  0.058124     12.000000
  0.000000  0.000000  0.077498      2.000000
  0.020607  0.011897  0.077498     12.000000
  0.041214  0.023795  0.077498     12.000000
  0.061821  0.035692  0.077498     12.000000
  0.082427  0.047590  0.077498     12.000000
  0.103034  0.059487  0.077498     12.000000
  0.123641  0.071384  0.077498     12.000000
  0.144248  0.083282  0.077498     12.000000
  0.164855  0.095179  0.077498      6.000000
  0.020607  0.035692  0.077498     12.000000
  0.041214  0.047590  0.077498     24.000000
  0.061821  0.059487  0.077498     24.000000
  0.082427  0.071384  0.077498     24.000000
  0.103034  0.083282  0.077498     24.000000
  0.123641  0.095179  0.077498     24.000000
  0.144248  0.107076  0.077498     24.000000
  0.041214  0.071384  0.077498     12.000000
  0.061821  0.083282  0.077498     24.000000
  0.082427  0.095179  0.077498     24.000000
  0.103034  0.107076  0.077498     24.000000
  0.123641  0.118974  0.077498     24.000000
  0.144248  0.130871  0.077498     12.000000
  0.061821  0.107076  0.077498     12.000000
  0.082427  0.118974  0.077498     24.000000
  0.103034  0.130871  0.077498     24.000000
  0.123641  0.142769  0.077498     24.000000
  0.082427  0.142769  0.077498     12.000000
  0.103034  0.154666  0.077498     24.000000
  0.123641  0.166563  0.077498     12.000000
  0.103034  0.178461  0.077498     12.000000
  0.000000  0.000000  0.096873      2.000000
  0.020607  0.011897  0.096873     12.000000
  0.041214  0.023795  0.096873     12.000000
  0.061821  0.035692  0.096873     12.000000
  0.082427  0.047590  0.096873     12.000000
  0.103034  0.059487  0.096873     12.000000
  0.123641  0.071384  0.096873     12.000000
  0.144248  0.083282  0.096873     12.000000
  0.164855  0.095179  0.096873      6.000000
  0.020607  0.035692  0.096873     12.000000
  0.041214  0.047590  0.096873     24.000000
  0.061821  0.059487  0.096873     24.000000
  0.082427  0.071384  0.096873     24.000000
  0.103034  0.083282  0.096873     24.000000
  0.123641  0.095179  0.096873     24.000000
  0.144248  0.107076  0.096873     24.000000
  0.041214  0.071384  0.096873     12.000000
  0.061821  0.083282  0.096873     24.000000
  0.082427  0.095179  0.096873     24.000000
  0.103034  0.107076  0.096873     24.000000
  0.123641  0.118974  0.096873     24.000000
  0.144248  0.130871  0.096873     12.000000
  0.061821  0.107076  0.096873     12.000000
  0.082427  0.118974  0.096873     24.000000
  0.103034  0.130871  0.096873     24.000000
  0.123641  0.142769  0.096873     24.000000
  0.082427  0.142769  0.096873     12.000000
  0.103034  0.154666  0.096873     24.000000
  0.123641  0.166563  0.096873     12.000000
  0.103034  0.178461  0.096873     12.000000
  0.000000  0.000000  0.116247      2.000000
  0.020607  0.011897  0.116247     12.000000
  0.041214  0.023795  0.116247     12.000000
  0.061821  0.035692  0.116247     12.000000
  0.082427  0.047590  0.116247     12.000000
  0.103034  0.059487  0.116247     12.000000
  0.123641  0.071384  0.116247     12.000000
  0.144248  0.083282  0.116247     12.000000
  0.164855  0.095179  0.116247      6.000000
  0.020607  0.035692  0.116247     12.000000
  0.041214  0.047590  0.116247     24.000000
  0.061821  0.059487  0.116247     24.000000
  0.082427  0.071384  0.116247     24.000000
  0.103034  0.083282  0.116247     24.000000
  0.123641  0.095179  0.116247     24.000000
  0.144248  0.107076  0.116247     24.000000
  0.041214  0.071384  0.116247     12.000000
  0.061821  0.083282  0.116247     24.000000
  0.082427  0.095179  0.116247     24.000000
  0.103034  0.107076  0.116247     24.000000
  0.123641  0.118974  0.116247     24.000000
  0.144248  0.130871  0.116247     12.000000
  0.061821  0.107076  0.116247     12.000000
  0.082427  0.118974  0.116247     24.000000
  0.103034  0.130871  0.116247     24.000000
  0.123641  0.142769  0.116247     24.000000
  0.082427  0.142769  0.116247     12.000000
  0.103034  0.154666  0.116247     24.000000
  0.123641  0.166563  0.116247     12.000000
  0.103034  0.178461  0.116247     12.000000
  0.000000  0.000000  0.135622      2.000000
  0.020607  0.011897  0.135622     12.000000
  0.041214  0.023795  0.135622     12.000000
  0.061821  0.035692  0.135622     12.000000
  0.082427  0.047590  0.135622     12.000000
  0.103034  0.059487  0.135622     12.000000
  0.123641  0.071384  0.135622     12.000000
  0.144248  0.083282  0.135622     12.000000
  0.164855  0.095179  0.135622      6.000000
  0.020607  0.035692  0.135622     12.000000
  0.041214  0.047590  0.135622     24.000000
  0.061821  0.059487  0.135622     24.000000
  0.082427  0.071384  0.135622     24.000000
  0.103034  0.083282  0.135622     24.000000
  0.123641  0.095179  0.135622     24.000000
  0.144248  0.107076  0.135622     24.000000
  0.041214  0.071384  0.135622     12.000000
  0.061821  0.083282  0.135622     24.000000
  0.082427  0.095179  0.135622     24.000000
  0.103034  0.107076  0.135622     24.000000
  0.123641  0.118974  0.135622     24.000000
  0.144248  0.130871  0.135622     12.000000
  0.061821  0.107076  0.135622     12.000000
  0.082427  0.118974  0.135622     24.000000
  0.103034  0.130871  0.135622     24.000000
  0.123641  0.142769  0.135622     24.000000
  0.082427  0.142769  0.135622     12.000000
  0.103034  0.154666  0.135622     24.000000
  0.123641  0.166563  0.135622     12.000000
  0.103034  0.178461  0.135622     12.000000
  0.000000  0.000000  0.154996      1.000000
  0.020607  0.011897  0.154996      6.000000
  0.041214  0.023795  0.154996      6.000000
  0.061821  0.035692  0.154996      6.000000
  0.082427  0.047590  0.154996      6.000000
  0.103034  0.059487  0.154996      6.000000
  0.123641  0.071384  0.154996      6.000000
  0.144248  0.083282  0.154996      6.000000
  0.164855  0.095179  0.154996      3.000000
  0.020607  0.035692  0.154996      6.000000
  0.041214  0.047590  0.154996     12.000000
  0.061821  0.059487  0.154996     12.000000
  0.082427  0.071384  0.154996     12.000000
  0.103034  0.083282  0.154996     12.000000
  0.123641  0.095179  0.154996     12.000000
  0.144248  0.107076  0.154996     12.000000
  0.041214  0.071384  0.154996      6.000000
  0.061821  0.083282  0.154996     12.000000
  0.082427  0.095179  0.154996     12.000000
  0.103034  0.107076  0.154996     12.000000
  0.123641  0.118974  0.154996     12.000000
  0.144248  0.130871  0.154996      6.000000
  0.061821  0.107076  0.154996      6.000000
  0.082427  0.118974  0.154996     12.000000
  0.103034  0.130871  0.154996     12.000000
  0.123641  0.142769  0.154996     12.000000
  0.082427  0.142769  0.154996      6.000000
  0.103034  0.154666  0.154996     12.000000
  0.123641  0.166563  0.154996      6.000000
  0.103034  0.178461  0.154996      6.000000
 


--------------------------------------------------------------------------------------------------------




 Dimension of arrays:
   k-points           NKPTS =    270   k-points in BZ     NKDIM =    270   number of bands    NBANDS=     12
   number of dos      NEDOS =    301   number of ions     NIONS =      3
   non local maximal  LDIM  =      5   non local SUM 2l+1 LMDIM =     15
   total plane-waves  NPLWV =  16128
   max r-space proj   IRMAX =      1   max aug-charges    IRDMAX=  43538
   dimension x,y,z NGX =    24 NGY =   24 NGZ =   28
   dimension x,y,z NGXF=    48 NGYF=   48 NGZF=   56
   support grid    NGXF=    48 NGYF=   48 NGZF=   56
   ions per type =               1   2
   NGX,Y,Z   is equivalent  to a cutoff of  13.16, 13.16, 14.43 a.u.
   NGXF,Y,Z  is equivalent  to a cutoff of  26.31, 26.31, 28.86 a.u.

 SYSTEM =  unknown system                          
 POSCAR =  Ti  B                                   

 Startparameter for this run:
   NWRITE =      2    write-flag & timer
   PREC   = accura    normal or accurate (medium, high low for compatibility)
   ISTART =      0    job   : 0-new  1-cont  2-samecut
   ICHARG =      2    charge: 1-file 2-atom 10-const
   ISPIN  =      1    spin polarized calculation?
   LNONCOLLINEAR =      F non collinear calculations
   LSORBIT =      F    spin-orbit coupling
   INIWAV =      1    electr: 0-lowe 1-rand  2-diag
   LASPH  =      F    aspherical Exc in radial PAW
   METAGGA=      F    non-selfconsistent MetaGGA calc.

 Electronic Relaxation 1
   ENCUT  =  600.0 eV  44.10 Ry    6.64 a.u.   6.06  6.06  6.44*2*pi/ulx,y,z
   ENINI  =  600.0     initial cutoff
   ENAUG  =  535.5 eV  augmentation charge cutoff
   NELM   =     60;   NELMIN=  2; NELMDL=-12     # of ELM steps 
   EDIFF  = 0.1E-05   stopping-criterion for ELM
   LREAL  =      F    real-space projection
   NLSPLINE    = F    spline interpolate recip. space projectors
   LCOMPAT=      F    compatible to vasp.4.4
   GGA_COMPAT  = T    GGA compatible to vasp.4.4-vasp.4.6
   LMAXPAW     = -100 max onsite density
   LMAXMIX     =    2 max onsite mixed and CHGCAR
   VOSKOWN=      0    Vosko Wilk Nusair interpolation
   ROPT   =    0.00000   0.00000
 Ionic relaxation
   EDIFFG = -.1E-02   stopping-criterion for IOM
   NSW    =     50    number of steps for IOM
   NBLOCK =      1;   KBLOCK =     50    inner block; outer block 
   IBRION =      1    ionic relax: 0-MD 1-quasi-New 2-CG
   NFREE  =      0    steps in history (QN), initial steepest desc. (CG)
   ISIF   =      3    stress and relaxation
   IWAVPR =     11    prediction:  0-non 1-charg 2-wave 3-comb
   ISYM   =      2    0-nonsym 1-usesym 2-fastsym
   LCORR  =      T    Harris-Foulkes like correction to forces

   POTIM  = 0.5000    time-step for ionic-motion
   TEIN   =    0.0    initial temperature
   TEBEG  =    0.0;   TEEND  =   0.0 temperature during run
   SMASS  =  -3.00    Nose mass-parameter (am)
   estimated Nose-frequenzy (Omega)   =  0.10E-29 period in steps =****** mass=  -0.210E-27a.u.
   SCALEE = 1.0000    scale energy and forces
   NPACO  =    256;   APACO  = 16.0  distance and # of slots for P.C.
   PSTRESS=    0.0 pullay stress

  Mass of Ions in am
   POMASS =  47.88 10.81
  Ionic Valenz
   ZVAL   =   4.00  3.00
  Atomic Wigner-Seitz radii
   RWIGS  =  -1.00 -1.00
  virtual crystal weights 
   VCA    =   1.00  1.00
   NELECT =      10.0000    total number of electrons
   NUPDOWN=      -1.0000    fix difference up-down

 DOS related values:
   EMIN   =  10.00;   EMAX   =-10.00  energy-range for DOS
   EFERMI =   0.00
   ISMEAR =     0;   SIGMA  =   0.05  broadening in eV -4-tet -1-fermi 0-gaus

 Electronic relaxation 2 (details)
   IALGO  =     48    algorithm
   LDIAG  =      T    sub-space diagonalisation (order eigenvalues)
   LSUBROT=      F    optimize rotation matrix (better conditioning)
   TURBO    =      0    0=normal 1=particle mesh
   IRESTART =      0    0=no restart 2=restart with 2 vectors
   NREBOOT  =      0    no. of reboots
   NMIN     =      0    reboot dimension
   EREF     =   0.00    reference energy to select bands
   IMIX   =      4    mixing-type and parameters
     AMIX     =   0.40;   BMIX     =  1.00
     AMIX_MAG =   1.60;   BMIX_MAG =  1.00
     AMIN     =   0.10
     WC   =   100.;   INIMIX=   1;  MIXPRE=   1;  MAXMIX= -45

 Intra band minimization:
   WEIMIN = 0.0010     energy-eigenvalue tresh-hold
   EBREAK =  0.21E-07  absolut break condition
   DEPER  =   0.30     relativ break condition  

   TIME   =   0.40     timestep for ELM

  volume/ion in A,a.u.               =       8.57        57.81
  Fermi-wavevector in a.u.,A,eV,Ry     =   1.195188  2.258579 19.435587  1.428475
  Thomas-Fermi vector in A             =   2.331160
 
 Write flags
   LWAVE        =      F    write WAVECAR
   LDOWNSAMPLE  =      F    k-point downsampling of WAVECAR
   LCHARG       =      F    write CHGCAR
   LVTOT        =      F    write LOCPOT, total local potential
   LVHAR        =      F    write LOCPOT, Hartree potential only
   LELF         =      F    write electronic localiz. function (ELF)
   LORBIT       =      0    0 simple, 1 ext, 2 COOP (PROOUT), +10 PAW based schemes


 Dipole corrections
   LMONO  =      F    monopole corrections only (constant potential shift)
   LDIPOL =      F    correct potential (dipole corrections)
   IDIPOL =      0    1-x, 2-y, 3-z, 4-all directions 
   EPSILON=  1.0000000 bulk dielectric constant

 Exchange correlation treatment:
   GGA     =    --    GGA type
   LEXCH   =     8    internal setting for exchange type
   VOSKOWN=      0    Vosko Wilk Nusair interpolation
   LHFCALC =     F    Hartree Fock is set to
   LHFONE  =     F    Hartree Fock one center treatment
   AEXX    =    0.0000 exact exchange contribution

 Linear response parameters
   LEPSILON=     F    determine dielectric tensor
   LRPA    =     F    only Hartree local field effects (RPA)
   LNABLA  =     F    use nabla operator in PAW spheres
   LVEL    =     F    velocity operator in full k-point grid
   LINTERFAST=   F  fast interpolation
   KINTER  =     0    interpolate to denser k-point grid
   CSHIFT  =0.1000    complex shift for real part using Kramers Kronig
   OMEGAMAX=  -1.0    maximum frequency
   DEG_THRESHOLD= 0.2000000E-02 threshold for treating states as degnerate
   RTIME   =   -0.100 relaxation time in fs
  (WPLASMAI=    0.000 imaginary part of plasma frequency in eV, 0.658/RTIME)
   DFIELD  = 0.0000000 0.0000000 0.0000000 field for delta impulse in time
 
 Orbital magnetization related:
   ORBITALMAG=     F  switch on orbital magnetization
   LCHIMAG   =     F  perturbation theory with respect to B field
   DQ        =  0.001000  dq finite difference perturbation B field
   LLRAUG    =     F  two centre corrections for induced B field



--------------------------------------------------------------------------------------------------------


 quasi-Newton-method for relaxation of ions
 charge density and potential will be updated during run
 non-spin polarized calculation
 RMM-DIIS sequential band-by-band
 perform sub-space diagonalisation
    before iterative eigenvector-optimisation
 modified Broyden-mixing scheme, WC =      100.0
 initial mixing is a Kerker type mixing with AMIX =  0.4000 and BMIX =      1.0000
 Hartree-type preconditioning will be used
 using additional bands            7
 reciprocal scheme for non local part
 use partial core corrections
 calculate Harris-corrections to forces 
   (improved forces if not selfconsistent)
 use gradient corrections 
 use of overlap-Matrix (Vanderbilt PP)
 Gauss-broadening in eV      SIGMA  =   0.05


--------------------------------------------------------------------------------------------------------


  energy-cutoff  :      600.00
  volume of cell :       25.70
      direct lattice vectors                 reciprocal lattice vectors
     3.032970394  0.000000000  0.000000000     0.329709780  0.190358030  0.000000000
    -1.516485197  2.626629410  0.000000000     0.000000000  0.380716060  0.000000000
     0.000000000  0.000000000  3.225881383     0.000000000  0.000000000  0.309992799

  length of vectors
     3.032970394  3.032970394  3.225881383     0.380716060  0.380716060  0.309992799


 
 k-points in units of 2pi/SCALE and weight: A                                       
   0.00000000  0.00000000  0.00000000       0.000
   0.02060686  0.01189738  0.00000000       0.001
   0.04121372  0.02379475  0.00000000       0.001
   0.06182058  0.03569213  0.00000000       0.001
   0.08242744  0.04758951  0.00000000       0.001
   0.10303431  0.05948688  0.00000000       0.001
   0.12364117  0.07138426  0.00000000       0.001
   0.14424803  0.08328164  0.00000000       0.001
   0.16485489  0.09517902  0.00000000       0.001
   0.02060686  0.03569213  0.00000000       0.001
   0.04121372  0.04758951  0.00000000       0.003
   0.06182058  0.05948688  0.00000000       0.003
   0.08242744  0.07138426  0.00000000       0.003
   0.10303431  0.08328164  0.00000000       0.003
   0.12364117  0.09517902  0.00000000       0.003
   0.14424803  0.10707639  0.00000000       0.003
   0.04121372  0.07138426  0.00000000       0.001
   0.06182058  0.08328164  0.00000000       0.003
   0.08242744  0.09517902  0.00000000       0.003
   0.10303431  0.10707639  0.00000000       0.003
   0.12364117  0.11897377  0.00000000       0.003
   0.14424803  0.13087115  0.00000000       0.001
   0.06182058  0.10707639  0.00000000       0.001
   0.08242744  0.11897377  0.00000000       0.003
   0.10303431  0.13087115  0.00000000       0.003
   0.12364117  0.14276852  0.00000000       0.003
   0.08242744  0.14276852  0.00000000       0.001
   0.10303431  0.15466590  0.00000000       0.003
   0.12364117  0.16656328  0.00000000       0.001
   0.10303431  0.17846065  0.00000000       0.001
   0.00000000  0.00000000  0.01937455       0.000
   0.02060686  0.01189738  0.01937455       0.003
   0.04121372  0.02379475  0.01937455       0.003
   0.06182058  0.03569213  0.01937455       0.003
   0.08242744  0.04758951  0.01937455       0.003
   0.10303431  0.05948688  0.01937455       0.003
   0.12364117  0.07138426  0.01937455       0.003
   0.14424803  0.08328164  0.01937455       0.003
   0.16485489  0.09517902  0.01937455       0.001
   0.02060686  0.03569213  0.01937455       0.003
   0.04121372  0.04758951  0.01937455       0.006
   0.06182058  0.05948688  0.01937455       0.006
   0.08242744  0.07138426  0.01937455       0.006
   0.10303431  0.08328164  0.01937455       0.006
   0.12364117  0.09517902  0.01937455       0.006
   0.14424803  0.10707639  0.01937455       0.006
   0.04121372  0.07138426  0.01937455       0.003
   0.06182058  0.08328164  0.01937455       0.006
   0.08242744  0.09517902  0.01937455       0.006
   0.10303431  0.10707639  0.01937455       0.006
   0.12364117  0.11897377  0.01937455       0.006
   0.14424803  0.13087115  0.01937455       0.003
   0.06182058  0.10707639  0.01937455       0.003
   0.08242744  0.11897377  0.01937455       0.006
   0.10303431  0.13087115  0.01937455       0.006
   0.12364117  0.14276852  0.01937455       0.006
   0.08242744  0.14276852  0.01937455       0.003
   0.10303431  0.15466590  0.01937455       0.006
   0.12364117  0.16656328  0.01937455       0.003
   0.10303431  0.17846065  0.01937455       0.003
   0.00000000  0.00000000  0.03874910       0.000
   0.02060686  0.01189738  0.03874910       0.003
   0.04121372  0.02379475  0.03874910       0.003
   0.06182058  0.03569213  0.03874910       0.003
   0.08242744  0.04758951  0.03874910       0.003
   0.10303431  0.05948688  0.03874910       0.003
   0.12364117  0.07138426  0.03874910       0.003
   0.14424803  0.08328164  0.03874910       0.003
   0.16485489  0.09517902  0.03874910       0.001
   0.02060686  0.03569213  0.03874910       0.003
   0.04121372  0.04758951  0.03874910       0.006
   0.06182058  0.05948688  0.03874910       0.006
   0.08242744  0.07138426  0.03874910       0.006
   0.10303431  0.08328164  0.03874910       0.006
   0.12364117  0.09517902  0.03874910       0.006
   0.14424803  0.10707639  0.03874910       0.006
   0.04121372  0.07138426  0.03874910       0.003
   0.06182058  0.08328164  0.03874910       0.006
   0.08242744  0.09517902  0.03874910       0.006
   0.10303431  0.10707639  0.03874910       0.006
   0.12364117  0.11897377  0.03874910       0.006
   0.14424803  0.13087115  0.03874910       0.003
   0.06182058  0.10707639  0.03874910       0.003
   0.08242744  0.11897377  0.03874910       0.006
   0.10303431  0.13087115  0.03874910       0.006
   0.12364117  0.14276852  0.03874910       0.006
   0.08242744  0.14276852  0.03874910       0.003
   0.10303431  0.15466590  0.03874910       0.006
   0.12364117  0.16656328  0.03874910       0.003
   0.10303431  0.17846065  0.03874910       0.003
   0.00000000  0.00000000  0.05812365       0.000
   0.02060686  0.01189738  0.05812365       0.003
   0.04121372  0.02379475  0.05812365       0.003
   0.06182058  0.03569213  0.05812365       0.003
   0.08242744  0.04758951  0.05812365       0.003
   0.10303431  0.05948688  0.05812365       0.003
   0.12364117  0.07138426  0.05812365       0.003
   0.14424803  0.08328164  0.05812365       0.003
   0.16485489  0.09517902  0.05812365       0.001
   0.02060686  0.03569213  0.05812365       0.003
   0.04121372  0.04758951  0.05812365       0.006
   0.06182058  0.05948688  0.05812365       0.006
   0.08242744  0.07138426  0.05812365       0.006
   0.10303431  0.08328164  0.05812365       0.006
   0.12364117  0.09517902  0.05812365       0.006
   0.14424803  0.10707639  0.05812365       0.006
   0.04121372  0.07138426  0.05812365       0.003
   0.06182058  0.08328164  0.05812365       0.006
   0.08242744  0.09517902  0.05812365       0.006
   0.10303431  0.10707639  0.05812365       0.006
   0.12364117  0.11897377  0.05812365       0.006
   0.14424803  0.13087115  0.05812365       0.003
   0.06182058  0.10707639  0.05812365       0.003
   0.08242744  0.11897377  0.05812365       0.006
   0.10303431  0.13087115  0.05812365       0.006
   0.12364117  0.14276852  0.05812365       0.006
   0.08242744  0.14276852  0.05812365       0.003
   0.10303431  0.15466590  0.05812365       0.006
   0.12364117  0.16656328  0.05812365       0.003
   0.10303431  0.17846065  0.05812365       0.003
   0.00000000  0.00000000  0.07749820       0.000
   0.02060686  0.01189738  0.07749820       0.003
   0.04121372  0.02379475  0.07749820       0.003
   0.06182058  0.03569213  0.07749820       0.003
   0.08242744  0.04758951  0.07749820       0.003
   0.10303431  0.05948688  0.07749820       0.003
   0.12364117  0.07138426  0.07749820       0.003
   0.14424803  0.08328164  0.07749820       0.003
   0.16485489  0.09517902  0.07749820       0.001
   0.02060686  0.03569213  0.07749820       0.003
   0.04121372  0.04758951  0.07749820       0.006
   0.06182058  0.05948688  0.07749820       0.006
   0.08242744  0.07138426  0.07749820       0.006
   0.10303431  0.08328164  0.07749820       0.006
   0.12364117  0.09517902  0.07749820       0.006
   0.14424803  0.10707639  0.07749820       0.006
   0.04121372  0.07138426  0.07749820       0.003
   0.06182058  0.08328164  0.07749820       0.006
   0.08242744  0.09517902  0.07749820       0.006
   0.10303431  0.10707639  0.07749820       0.006
   0.12364117  0.11897377  0.07749820       0.006
   0.14424803  0.13087115  0.07749820       0.003
   0.06182058  0.10707639  0.07749820       0.003
   0.08242744  0.11897377  0.07749820       0.006
   0.10303431  0.13087115  0.07749820       0.006
   0.12364117  0.14276852  0.07749820       0.006
   0.08242744  0.14276852  0.07749820       0.003
   0.10303431  0.15466590  0.07749820       0.006
   0.12364117  0.16656328  0.07749820       0.003
   0.10303431  0.17846065  0.07749820       0.003
   0.00000000  0.00000000  0.09687275       0.000
   0.02060686  0.01189738  0.09687275       0.003
   0.04121372  0.02379475  0.09687275       0.003
   0.06182058  0.03569213  0.09687275       0.003
   0.08242744  0.04758951  0.09687275       0.003
   0.10303431  0.05948688  0.09687275       0.003
   0.12364117  0.07138426  0.09687275       0.003
   0.14424803  0.08328164  0.09687275       0.003
   0.16485489  0.09517902  0.09687275       0.001
   0.02060686  0.03569213  0.09687275       0.003
   0.04121372  0.04758951  0.09687275       0.006
   0.06182058  0.05948688  0.09687275       0.006
   0.08242744  0.07138426  0.09687275       0.006
   0.10303431  0.08328164  0.09687275       0.006
   0.12364117  0.09517902  0.09687275       0.006
   0.14424803  0.10707639  0.09687275       0.006
   0.04121372  0.07138426  0.09687275       0.003
   0.06182058  0.08328164  0.09687275       0.006
   0.08242744  0.09517902  0.09687275       0.006
   0.10303431  0.10707639  0.09687275       0.006
   0.12364117  0.11897377  0.09687275       0.006
   0.14424803  0.13087115  0.09687275       0.003
   0.06182058  0.10707639  0.09687275       0.003
   0.08242744  0.11897377  0.09687275       0.006
   0.10303431  0.13087115  0.09687275       0.006
   0.12364117  0.14276852  0.09687275       0.006
   0.08242744  0.14276852  0.09687275       0.003
   0.10303431  0.15466590  0.09687275       0.006
   0.12364117  0.16656328  0.09687275       0.003
   0.10303431  0.17846065  0.09687275       0.003
   0.00000000  0.00000000  0.11624730       0.000
   0.02060686  0.01189738  0.11624730       0.003
   0.04121372  0.02379475  0.11624730       0.003
   0.06182058  0.03569213  0.11624730       0.003
   0.08242744  0.04758951  0.11624730       0.003
   0.10303431  0.05948688  0.11624730       0.003
   0.12364117  0.07138426  0.11624730       0.003
   0.14424803  0.08328164  0.11624730       0.003
   0.16485489  0.09517902  0.11624730       0.001
   0.02060686  0.03569213  0.11624730       0.003
   0.04121372  0.04758951  0.11624730       0.006
   0.06182058  0.05948688  0.11624730       0.006
   0.08242744  0.07138426  0.11624730       0.006
   0.10303431  0.08328164  0.11624730       0.006
   0.12364117  0.09517902  0.11624730       0.006
   0.14424803  0.10707639  0.11624730       0.006
   0.04121372  0.07138426  0.11624730       0.003
   0.06182058  0.08328164  0.11624730       0.006
   0.08242744  0.09517902  0.11624730       0.006
   0.10303431  0.10707639  0.11624730       0.006
   0.12364117  0.11897377  0.11624730       0.006
   0.14424803  0.13087115  0.11624730       0.003
   0.06182058  0.10707639  0.11624730       0.003
   0.08242744  0.11897377  0.11624730       0.006
   0.10303431  0.13087115  0.11624730       0.006
   0.12364117  0.14276852  0.11624730       0.006
   0.08242744  0.14276852  0.11624730       0.003
   0.10303431  0.15466590  0.11624730       0.006
   0.12364117  0.16656328  0.11624730       0.003
   0.10303431  0.17846065  0.11624730       0.003
   0.00000000  0.00000000  0.13562185       0.000
   0.02060686  0.01189738  0.13562185       0.003
   0.04121372  0.02379475  0.13562185       0.003
   0.06182058  0.03569213  0.13562185       0.003
   0.08242744  0.04758951  0.13562185       0.003
   0.10303431  0.05948688  0.13562185       0.003
   0.12364117  0.07138426  0.13562185       0.003
   0.14424803  0.08328164  0.13562185       0.003
   0.16485489  0.09517902  0.13562185       0.001
   0.02060686  0.03569213  0.13562185       0.003
   0.04121372  0.04758951  0.13562185       0.006
   0.06182058  0.05948688  0.13562185       0.006
   0.08242744  0.07138426  0.13562185       0.006
   0.10303431  0.08328164  0.13562185       0.006
   0.12364117  0.09517902  0.13562185       0.006
   0.14424803  0.10707639  0.13562185       0.006
   0.04121372  0.07138426  0.13562185       0.003
   0.06182058  0.08328164  0.13562185       0.006
   0.08242744  0.09517902  0.13562185       0.006
   0.10303431  0.10707639  0.13562185       0.006
   0.12364117  0.11897377  0.13562185       0.006
   0.14424803  0.13087115  0.13562185       0.003
   0.06182058  0.10707639  0.13562185       0.003
   0.08242744  0.11897377  0.13562185       0.006
   0.10303431  0.13087115  0.13562185       0.006
   0.12364117  0.14276852  0.13562185       0.006
   0.08242744  0.14276852  0.13562185       0.003
   0.10303431  0.15466590  0.13562185       0.006
   0.12364117  0.16656328  0.13562185       0.003
   0.10303431  0.17846065  0.13562185       0.003
   0.00000000  0.00000000  0.15499640       0.000
   0.02060686  0.01189738  0.15499640       0.001
   0.04121372  0.02379475  0.15499640       0.001
   0.06182058  0.03569213  0.15499640       0.001
   0.08242744  0.04758951  0.15499640       0.001
   0.10303431  0.05948688  0.15499640       0.001
   0.12364117  0.07138426  0.15499640       0.001
   0.14424803  0.08328164  0.15499640       0.001
   0.16485489  0.09517902  0.15499640       0.001
   0.02060686  0.03569213  0.15499640       0.001
   0.04121372  0.04758951  0.15499640       0.003
   0.06182058  0.05948688  0.15499640       0.003
   0.08242744  0.07138426  0.15499640       0.003
   0.10303431  0.08328164  0.15499640       0.003
   0.12364117  0.09517902  0.15499640       0.003
   0.14424803  0.10707639  0.15499640       0.003
   0.04121372  0.07138426  0.15499640       0.001
   0.06182058  0.08328164  0.15499640       0.003
   0.08242744  0.09517902  0.15499640       0.003
   0.10303431  0.10707639  0.15499640       0.003
   0.12364117  0.11897377  0.15499640       0.003
   0.14424803  0.13087115  0.15499640       0.001
   0.06182058  0.10707639  0.15499640       0.001
   0.08242744  0.11897377  0.15499640       0.003
   0.10303431  0.13087115  0.15499640       0.003
   0.12364117  0.14276852  0.15499640       0.003
   0.08242744  0.14276852  0.15499640       0.001
   0.10303431  0.15466590  0.15499640       0.003
   0.12364117  0.16656328  0.15499640       0.001
   0.10303431  0.17846065  0.15499640       0.001
 
 k-points in reciprocal lattice and weights: A                                       
   0.00000000  0.00000000  0.00000000       0.000
   0.06250000  0.00000000  0.00000000       0.001
   0.12500000  0.00000000  0.00000000       0.001
   0.18750000  0.00000000  0.00000000       0.001
   0.25000000  0.00000000  0.00000000       0.001
   0.31250000  0.00000000  0.00000000       0.001
   0.37500000  0.00000000  0.00000000       0.001
   0.43750000  0.00000000  0.00000000       0.001
   0.50000000  0.00000000  0.00000000       0.001
   0.06250000  0.06250000  0.00000000       0.001
   0.12500000  0.06250000  0.00000000       0.003
   0.18750000  0.06250000  0.00000000       0.003
   0.25000000  0.06250000  0.00000000       0.003
   0.31250000  0.06250000  0.00000000       0.003
   0.37500000  0.06250000  0.00000000       0.003
   0.43750000  0.06250000  0.00000000       0.003
   0.12500000  0.12500000  0.00000000       0.001
   0.18750000  0.12500000  0.00000000       0.003
   0.25000000  0.12500000  0.00000000       0.003
   0.31250000  0.12500000  0.00000000       0.003
   0.37500000  0.12500000  0.00000000       0.003
   0.43750000  0.12500000  0.00000000       0.001
   0.18750000  0.18750000  0.00000000       0.001
   0.25000000  0.18750000  0.00000000       0.003
   0.31250000  0.18750000  0.00000000       0.003
   0.37500000  0.18750000  0.00000000       0.003
   0.25000000  0.25000000  0.00000000       0.001
   0.31250000  0.25000000  0.00000000       0.003
   0.37500000  0.25000000  0.00000000       0.001
   0.31250000  0.31250000  0.00000000       0.001
   0.00000000  0.00000000  0.06250000       0.000
   0.06250000  0.00000000  0.06250000       0.003
   0.12500000  0.00000000  0.06250000       0.003
   0.18750000  0.00000000  0.06250000       0.003
   0.25000000  0.00000000  0.06250000       0.003
   0.31250000  0.00000000  0.06250000       0.003
   0.37500000  0.00000000  0.06250000       0.003
   0.43750000  0.00000000  0.06250000       0.003
   0.50000000  0.00000000  0.06250000       0.001
   0.06250000  0.06250000  0.06250000       0.003
   0.12500000  0.06250000  0.06250000       0.006
   0.18750000  0.06250000  0.06250000       0.006
   0.25000000  0.06250000  0.06250000       0.006
   0.31250000  0.06250000  0.06250000       0.006
   0.37500000  0.06250000  0.06250000       0.006
   0.43750000  0.06250000  0.06250000       0.006
   0.12500000  0.12500000  0.06250000       0.003
   0.18750000  0.12500000  0.06250000       0.006
   0.25000000  0.12500000  0.06250000       0.006
   0.31250000  0.12500000  0.06250000       0.006
   0.37500000  0.12500000  0.06250000       0.006
   0.43750000  0.12500000  0.06250000       0.003
   0.18750000  0.18750000  0.06250000       0.003
   0.25000000  0.18750000  0.06250000       0.006
   0.31250000  0.18750000  0.06250000       0.006
   0.37500000  0.18750000  0.06250000       0.006
   0.25000000  0.25000000  0.06250000       0.003
   0.31250000  0.25000000  0.06250000       0.006
   0.37500000  0.25000000  0.06250000       0.003
   0.31250000  0.31250000  0.06250000       0.003
   0.00000000  0.00000000  0.12500000       0.000
   0.06250000  0.00000000  0.12500000       0.003
   0.12500000  0.00000000  0.12500000       0.003
   0.18750000  0.00000000  0.12500000       0.003
   0.25000000  0.00000000  0.12500000       0.003
   0.31250000  0.00000000  0.12500000       0.003
   0.37500000  0.00000000  0.12500000       0.003
   0.43750000  0.00000000  0.12500000       0.003
   0.50000000  0.00000000  0.12500000       0.001
   0.06250000  0.06250000  0.12500000       0.003
   0.12500000  0.06250000  0.12500000       0.006
   0.18750000  0.06250000  0.12500000       0.006
   0.25000000  0.06250000  0.12500000       0.006
   0.31250000  0.06250000  0.12500000       0.006
   0.37500000  0.06250000  0.12500000       0.006
   0.43750000  0.06250000  0.12500000       0.006
   0.12500000  0.12500000  0.12500000       0.003
   0.18750000  0.12500000  0.12500000       0.006
   0.25000000  0.12500000  0.12500000       0.006
   0.31250000  0.12500000  0.12500000       0.006
   0.37500000  0.12500000  0.12500000       0.006
   0.43750000  0.12500000  0.12500000       0.003
   0.18750000  0.18750000  0.12500000       0.003
   0.25000000  0.18750000  0.12500000       0.006
   0.31250000  0.18750000  0.12500000       0.006
   0.37500000  0.18750000  0.12500000       0.006
   0.25000000  0.25000000  0.12500000       0.003
   0.31250000  0.25000000  0.12500000       0.006
   0.37500000  0.25000000  0.12500000       0.003
   0.31250000  0.31250000  0.12500000       0.003
   0.00000000  0.00000000  0.18750000       0.000
   0.06250000  0.00000000  0.18750000       0.003
   0.12500000  0.00000000  0.18750000       0.003
   0.18750000  0.00000000  0.18750000       0.003
   0.25000000  0.00000000  0.18750000       0.003
   0.31250000  0.00000000  0.18750000       0.003
   0.37500000  0.00000000  0.18750000       0.003
   0.43750000  0.00000000  0.18750000       0.003
   0.50000000  0.00000000  0.18750000       0.001
   0.06250000  0.06250000  0.18750000       0.003
   0.12500000  0.06250000  0.18750000       0.006
   0.18750000  0.06250000  0.18750000       0.006
   0.25000000  0.06250000  0.18750000       0.006
   0.31250000  0.06250000  0.18750000       0.006
   0.37500000  0.06250000  0.18750000       0.006
   0.43750000  0.06250000  0.18750000       0.006
   0.12500000  0.12500000  0.18750000       0.003
   0.18750000  0.12500000  0.18750000       0.006
   0.25000000  0.12500000  0.18750000       0.006
   0.31250000  0.12500000  0.18750000       0.006
   0.37500000  0.12500000  0.18750000       0.006
   0.43750000  0.12500000  0.18750000       0.003
   0.18750000  0.18750000  0.18750000       0.003
   0.25000000  0.18750000  0.18750000       0.006
   0.31250000  0.18750000  0.18750000       0.006
   0.37500000  0.18750000  0.18750000       0.006
   0.25000000  0.25000000  0.18750000       0.003
   0.31250000  0.25000000  0.18750000       0.006
   0.37500000  0.25000000  0.18750000       0.003
   0.31250000  0.31250000  0.18750000       0.003
   0.00000000  0.00000000  0.25000000       0.000
   0.06250000  0.00000000  0.25000000       0.003
   0.12500000  0.00000000  0.25000000       0.003
   0.18750000  0.00000000  0.25000000       0.003
   0.25000000  0.00000000  0.25000000       0.003
   0.31250000  0.00000000  0.25000000       0.003
   0.37500000  0.00000000  0.25000000       0.003
   0.43750000  0.00000000  0.25000000       0.003
   0.50000000  0.00000000  0.25000000       0.001
   0.06250000  0.06250000  0.25000000       0.003
   0.12500000  0.06250000  0.25000000       0.006
   0.18750000  0.06250000  0.25000000       0.006
   0.25000000  0.06250000  0.25000000       0.006
   0.31250000  0.06250000  0.25000000       0.006
   0.37500000  0.06250000  0.25000000       0.006
   0.43750000  0.06250000  0.25000000       0.006
   0.12500000  0.12500000  0.25000000       0.003
   0.18750000  0.12500000  0.25000000       0.006
   0.25000000  0.12500000  0.25000000       0.006
   0.31250000  0.12500000  0.25000000       0.006
   0.37500000  0.12500000  0.25000000       0.006
   0.43750000  0.12500000  0.25000000       0.003
   0.18750000  0.18750000  0.25000000       0.003
   0.25000000  0.18750000  0.25000000       0.006
   0.31250000  0.18750000  0.25000000       0.006
   0.37500000  0.18750000  0.25000000       0.006
   0.25000000  0.25000000  0.25000000       0.003
   0.31250000  0.25000000  0.25000000       0.006
   0.37500000  0.25000000  0.25000000       0.003
   0.31250000  0.31250000  0.25000000       0.003
   0.00000000  0.00000000  0.31250000       0.000
   0.06250000  0.00000000  0.31250000       0.003
   0.12500000  0.00000000  0.31250000       0.003
   0.18750000  0.00000000  0.31250000       0.003
   0.25000000  0.00000000  0.31250000       0.003
   0.31250000  0.00000000  0.31250000       0.003
   0.37500000  0.00000000  0.31250000       0.003
   0.43750000  0.00000000  0.31250000       0.003
   0.50000000  0.00000000  0.31250000       0.001
   0.06250000  0.06250000  0.31250000       0.003
   0.12500000  0.06250000  0.31250000       0.006
   0.18750000  0.06250000  0.31250000       0.006
   0.25000000  0.06250000  0.31250000       0.006
   0.31250000  0.06250000  0.31250000       0.006
   0.37500000  0.06250000  0.31250000       0.006
   0.43750000  0.06250000  0.31250000       0.006
   0.12500000  0.12500000  0.31250000       0.003
   0.18750000  0.12500000  0.31250000       0.006
   0.25000000  0.12500000  0.31250000       0.006
   0.31250000  0.12500000  0.31250000       0.006
   0.37500000  0.12500000  0.31250000       0.006
   0.43750000  0.12500000  0.31250000       0.003
   0.18750000  0.18750000  0.31250000       0.003
   0.25000000  0.18750000  0.31250000       0.006
   0.31250000  0.18750000  0.31250000       0.006
   0.37500000  0.18750000  0.31250000       0.006
   0.25000000  0.25000000  0.31250000       0.003
   0.31250000  0.25000000  0.31250000       0.006
   0.37500000  0.25000000  0.31250000       0.003
   0.31250000  0.31250000  0.31250000       0.003
   0.00000000  0.00000000  0.37500000       0.000
   0.06250000  0.00000000  0.37500000       0.003
   0.12500000  0.00000000  0.37500000       0.003
   0.18750000  0.00000000  0.37500000       0.003
   0.25000000  0.00000000  0.37500000       0.003
   0.31250000  0.00000000  0.37500000       0.003
   0.37500000  0.00000000  0.37500000       0.003
   0.43750000  0.00000000  0.37500000       0.003
   0.50000000  0.00000000  0.37500000       0.001
   0.06250000  0.06250000  0.37500000       0.003
   0.12500000  0.06250000  0.37500000       0.006
   0.18750000  0.06250000  0.37500000       0.006
   0.25000000  0.06250000  0.37500000       0.006
   0.31250000  0.06250000  0.37500000       0.006
   0.37500000  0.06250000  0.37500000       0.006
   0.43750000  0.06250000  0.37500000       0.006
   0.12500000  0.12500000  0.37500000       0.003
   0.18750000  0.12500000  0.37500000       0.006
   0.25000000  0.12500000  0.37500000       0.006
   0.31250000  0.12500000  0.37500000       0.006
   0.37500000  0.12500000  0.37500000       0.006
   0.43750000  0.12500000  0.37500000       0.003
   0.18750000  0.18750000  0.37500000       0.003
   0.25000000  0.18750000  0.37500000       0.006
   0.31250000  0.18750000  0.37500000       0.006
   0.37500000  0.18750000  0.37500000       0.006
   0.25000000  0.25000000  0.37500000       0.003
   0.31250000  0.25000000  0.37500000       0.006
   0.37500000  0.25000000  0.37500000       0.003
   0.31250000  0.31250000  0.37500000       0.003
   0.00000000  0.00000000  0.43750000       0.000
   0.06250000  0.00000000  0.43750000       0.003
   0.12500000  0.00000000  0.43750000       0.003
   0.18750000  0.00000000  0.43750000       0.003
   0.25000000  0.00000000  0.43750000       0.003
   0.31250000  0.00000000  0.43750000       0.003
   0.37500000  0.00000000  0.43750000       0.003
   0.43750000  0.00000000  0.43750000       0.003
   0.50000000  0.00000000  0.43750000       0.001
   0.06250000  0.06250000  0.43750000       0.003
   0.12500000  0.06250000  0.43750000       0.006
   0.18750000  0.06250000  0.43750000       0.006
   0.25000000  0.06250000  0.43750000       0.006
   0.31250000  0.06250000  0.43750000       0.006
   0.37500000  0.06250000  0.43750000       0.006
   0.43750000  0.06250000  0.43750000       0.006
   0.12500000  0.12500000  0.43750000       0.003
   0.18750000  0.12500000  0.43750000       0.006
   0.25000000  0.12500000  0.43750000       0.006
   0.31250000  0.12500000  0.43750000       0.006
   0.37500000  0.12500000  0.43750000       0.006
   0.43750000  0.12500000  0.43750000       0.003
   0.18750000  0.18750000  0.43750000       0.003
   0.25000000  0.18750000  0.43750000       0.006
   0.31250000  0.18750000  0.43750000       0.006
   0.37500000  0.18750000  0.43750000       0.006
   0.25000000  0.25000000  0.43750000       0.003
   0.31250000  0.25000000  0.43750000       0.006
   0.37500000  0.25000000  0.43750000       0.003
   0.31250000  0.31250000  0.43750000       0.003
   0.00000000  0.00000000  0.50000000       0.000
   0.06250000  0.00000000  0.50000000       0.001
   0.12500000  0.00000000  0.50000000       0.001
   0.18750000  0.00000000  0.50000000       0.001
   0.25000000  0.00000000  0.50000000       0.001
   0.31250000  0.00000000  0.50000000       0.001
   0.37500000  0.00000000  0.50000000       0.001
   0.43750000  0.00000000  0.50000000       0.001
   0.50000000  0.00000000  0.50000000       0.001
   0.06250000  0.06250000  0.50000000       0.001
   0.12500000  0.06250000  0.50000000       0.003
   0.18750000  0.06250000  0.50000000       0.003
   0.25000000  0.06250000  0.50000000       0.003
   0.31250000  0.06250000  0.50000000       0.003
   0.37500000  0.06250000  0.50000000       0.003
   0.43750000  0.06250000  0.50000000       0.003
   0.12500000  0.12500000  0.50000000       0.001
   0.18750000  0.12500000  0.50000000       0.003
   0.25000000  0.12500000  0.50000000       0.003
   0.31250000  0.12500000  0.50000000       0.003
   0.37500000  0.12500000  0.50000000       0.003
   0.43750000  0.12500000  0.50000000       0.001
   0.18750000  0.18750000  0.50000000       0.001
   0.25000000  0.18750000  0.50000000       0.003
   0.31250000  0.18750000  0.50000000       0.003
   0.37500000  0.18750000  0.50000000       0.003
   0.25000000  0.25000000  0.50000000       0.001
   0.31250000  0.25000000  0.50000000       0.003
   0.37500000  0.25000000  0.50000000       0.001
   0.31250000  0.31250000  0.50000000       0.001
 
 position of ions in fractional coordinates (direct lattice) 
   0.00000000  0.00000000  0.00000000
   0.33333333  0.66666667  0.50000000
   0.66666667  0.33333333  0.50000000
 
 position of ions in cartesian coordinates  (Angst):
   0.00000000  0.00000000  0.00000000
   0.00000000  1.75108627  1.61294069
   1.51648520  0.87554314  1.61294069
 


--------------------------------------------------------------------------------------------------------


 k-point  1 :   0.0000 0.0000 0.0000  plane waves:     841
 k-point  2 :   0.0625 0.0000 0.0000  plane waves:     849
 k-point  3 :   0.1250 0.0000 0.0000  plane waves:     849
 k-point  4 :   0.1875 0.0000 0.0000  plane waves:     851
 k-point  5 :   0.2500 0.0000 0.0000  plane waves:     850
 k-point  6 :   0.3125 0.0000 0.0000  plane waves:     858
 k-point  7 :   0.3750 0.0000 0.0000  plane waves:     858
 k-point  8 :   0.4375 0.0000 0.0000  plane waves:     862
 k-point  9 :   0.5000 0.0000 0.0000  plane waves:     868
 k-point 10 :   0.0625 0.0625 0.0000  plane waves:     848
 k-point 11 :   0.1250 0.0625 0.0000  plane waves:     853
 k-point 12 :   0.1875 0.0625 0.0000  plane waves:     855
 k-point 13 :   0.2500 0.0625 0.0000  plane waves:     856
 k-point 14 :   0.3125 0.0625 0.0000  plane waves:     856
 k-point 15 :   0.3750 0.0625 0.0000  plane waves:     867
 k-point 16 :   0.4375 0.0625 0.0000  plane waves:     868
 k-point 17 :   0.1250 0.1250 0.0000  plane waves:     852
 k-point 18 :   0.1875 0.1250 0.0000  plane waves:     857
 k-point 19 :   0.2500 0.1250 0.0000  plane waves:     858
 k-point 20 :   0.3125 0.1250 0.0000  plane waves:     869
 k-point 21 :   0.3750 0.1250 0.0000  plane waves:     862
 k-point 22 :   0.4375 0.1250 0.0000  plane waves:     864
 k-point 23 :   0.1875 0.1875 0.0000  plane waves:     850
 k-point 24 :   0.2500 0.1875 0.0000  plane waves:     856
 k-point 25 :   0.3125 0.1875 0.0000  plane waves:     865
 k-point 26 :   0.3750 0.1875 0.0000  plane waves:     867
 k-point 27 :   0.2500 0.2500 0.0000  plane waves:     866
 k-point 28 :   0.3125 0.2500 0.0000  plane waves:     870
 k-point 29 :   0.3750 0.2500 0.0000  plane waves:     866
 k-point 30 :   0.3125 0.3125 0.0000  plane waves:     874
 k-point 31 :   0.0000 0.0000 0.0625  plane waves:     853
 k-point 32 :   0.0625 0.0000 0.0625  plane waves:     852
 k-point 33 :   0.1250 0.0000 0.0625  plane waves:     851
 k-point 34 :   0.1875 0.0000 0.0625  plane waves:     849
 k-point 35 :   0.2500 0.0000 0.0625  plane waves:     851
 k-point 36 :   0.3125 0.0000 0.0625  plane waves:     857
 k-point 37 :   0.3750 0.0000 0.0625  plane waves:     859
 k-point 38 :   0.4375 0.0000 0.0625  plane waves:     860
 k-point 39 :   0.5000 0.0000 0.0625  plane waves:     856
 k-point 40 :   0.0625 0.0625 0.0625  plane waves:     850
 k-point 41 :   0.1250 0.0625 0.0625  plane waves:     850
 k-point 42 :   0.1875 0.0625 0.0625  plane waves:     852
 k-point 43 :   0.2500 0.0625 0.0625  plane waves:     851
 k-point 44 :   0.3125 0.0625 0.0625  plane waves:     862
 k-point 45 :   0.3750 0.0625 0.0625  plane waves:     860
 k-point 46 :   0.4375 0.0625 0.0625  plane waves:     863
 k-point 47 :   0.1250 0.1250 0.0625  plane waves:     853
 k-point 48 :   0.1875 0.1250 0.0625  plane waves:     853
 k-point 49 :   0.2500 0.1250 0.0625  plane waves:     857
 k-point 50 :   0.3125 0.1250 0.0625  plane waves:     863
 k-point 51 :   0.3750 0.1250 0.0625  plane waves:     867
 k-point 52 :   0.4375 0.1250 0.0625  plane waves:     866
 k-point 53 :   0.1875 0.1875 0.0625  plane waves:     852
 k-point 54 :   0.2500 0.1875 0.0625  plane waves:     862
 k-point 55 :   0.3125 0.1875 0.0625  plane waves:     869
 k-point 56 :   0.3750 0.1875 0.0625  plane waves:     869
 k-point 57 :   0.2500 0.2500 0.0625  plane waves:     866
 k-point 58 :   0.3125 0.2500 0.0625  plane waves:     871
 k-point 59 :   0.3750 0.2500 0.0625  plane waves:     873
 k-point 60 :   0.3125 0.3125 0.0625  plane waves:     875
 k-point 61 :   0.0000 0.0000 0.1250  plane waves:     853
 k-point 62 :   0.0625 0.0000 0.1250  plane waves:     846
 k-point 63 :   0.1250 0.0000 0.1250  plane waves:     848
 k-point 64 :   0.1875 0.0000 0.1250  plane waves:     853
 k-point 65 :   0.2500 0.0000 0.1250  plane waves:     852
 k-point 66 :   0.3125 0.0000 0.1250  plane waves:     857
 k-point 67 :   0.3750 0.0000 0.1250  plane waves:     856
 k-point 68 :   0.4375 0.0000 0.1250  plane waves:     858
 k-point 69 :   0.5000 0.0000 0.1250  plane waves:     856
 k-point 70 :   0.0625 0.0625 0.1250  plane waves:     852
 k-point 71 :   0.1250 0.0625 0.1250  plane waves:     852
 k-point 72 :   0.1875 0.0625 0.1250  plane waves:     856
 k-point 73 :   0.2500 0.0625 0.1250  plane waves:     853
 k-point 74 :   0.3125 0.0625 0.1250  plane waves:     860
 k-point 75 :   0.3750 0.0625 0.1250  plane waves:     861
 k-point 76 :   0.4375 0.0625 0.1250  plane waves:     859
 k-point 77 :   0.1250 0.1250 0.1250  plane waves:     855
 k-point 78 :   0.1875 0.1250 0.1250  plane waves:     851
 k-point 79 :   0.2500 0.1250 0.1250  plane waves:     857
 k-point 80 :   0.3125 0.1250 0.1250  plane waves:     861
 k-point 81 :   0.3750 0.1250 0.1250  plane waves:     866
 k-point 82 :   0.4375 0.1250 0.1250  plane waves:     866
 k-point 83 :   0.1875 0.1875 0.1250  plane waves:     859
 k-point 84 :   0.2500 0.1875 0.1250  plane waves:     862
 k-point 85 :   0.3125 0.1875 0.1250  plane waves:     867
 k-point 86 :   0.3750 0.1875 0.1250  plane waves:     871
 k-point 87 :   0.2500 0.2500 0.1250  plane waves:     870
 k-point 88 :   0.3125 0.2500 0.1250  plane waves:     871
 k-point 89 :   0.3750 0.2500 0.1250  plane waves:     873
 k-point 90 :   0.3125 0.3125 0.1250  plane waves:     875
 k-point 91 :   0.0000 0.0000 0.1875  plane waves:     841
 k-point 92 :   0.0625 0.0000 0.1875  plane waves:     845
 k-point 93 :   0.1250 0.0000 0.1875  plane waves:     853
 k-point 94 :   0.1875 0.0000 0.1875  plane waves:     862
 k-point 95 :   0.2500 0.0000 0.1875  plane waves:     853
 k-point 96 :   0.3125 0.0000 0.1875  plane waves:     855
 k-point 97 :   0.3750 0.0000 0.1875  plane waves:     863
[...]

 k-point   250 :       0.0625    0.0625    0.5000
  band No.  band energies     occupation 
      1      -5.1564      2.00000
      2      -0.8998      2.00000
      3       4.2361      2.00000
      4       4.4145      2.00000
      5       6.2941      1.99920
      6       6.9864      0.00000
      7       7.5104      0.00000
      8       7.6727      0.00000
      9       8.0474      0.00000
     10      13.4580      0.00000
     11      15.9967      0.00000
     12      16.5187      0.00000

 k-point   251 :       0.1250    0.0625    0.5000
  band No.  band energies     occupation 
      1      -4.9994      2.00000
      2      -0.5311      2.00000
      3       3.2402      2.00000
      4       3.6794      2.00000
      5       5.7894      2.00000
      6       7.2560      0.00000
      7       8.1267      0.00000
      8       8.1525      0.00000
      9       8.5234      0.00000
     10      13.7275      0.00000
     11      15.3666      0.00000
     12      16.8686      0.00000

 k-point   252 :       0.1875    0.0625    0.5000
  band No.  band energies     occupation 
      1      -4.7640      2.00000
      2      -0.0081      2.00000
      3       2.1838      2.00000
      4       3.0291      2.00000
      5       5.2135      2.00000
      6       7.6334      0.00000
      7       8.2954      0.00000
      8       8.6795      0.00000
      9       9.3308      0.00000
     10      13.8041      0.00000
     11      14.6542      0.00000
     12      17.0424      0.00000

 k-point   253 :       0.2500    0.0625    0.5000
  band No.  band energies     occupation 
      1      -4.4531      2.00000
      2       0.6298      2.00000
      3       1.1552      2.00000
      4       2.4911      2.00000
      5       4.6520      2.00000
      6       8.0801      0.00000
      7       8.4594      0.00000
      8       9.1905      0.00000
      9       9.9935      0.00000
     10      13.5429      0.00000
     11      13.9417      0.00000
     12      17.7750      0.00000

 k-point   254 :       0.3125    0.0625    0.5000
  band No.  band energies     occupation 
      1      -4.0774      2.00000
      2       0.2107      2.00000
      3       1.3243      2.00000
      4       2.0794      2.00000
      5       4.1467      2.00000
      6       8.5068      0.00000
      7       8.6549      0.00000
      8       9.6821      0.00000
      9      10.4653      0.00000
     10      13.0118      0.00000
     11      13.2631      0.00000
     12      17.3934      0.00000

 k-point   255 :       0.3750    0.0625    0.5000
  band No.  band energies     occupation 
      1      -3.6726      2.00000
      2      -0.5866      2.00000
      3       1.8015      2.00000
      4       1.9964      2.00000
      5       3.7040      2.00000
      6       8.6954      0.00000
      7       8.9950      0.00000
      8      10.1558      0.00000
      9      10.7362      0.00000
     10      12.4410      0.00000
     11      12.6681      0.00000
     12      16.7653      0.00000

 k-point   256 :       0.4375    0.0625    0.5000
  band No.  band energies     occupation 
      1      -3.3539      2.00000
      2      -1.1053      2.00000
      3       1.6615      2.00000
      4       2.5300      2.00000
      5       3.3305      2.00000
      6       8.7681      0.00000
      7       9.2350      0.00000
      8      10.5628      0.00000
      9      10.7881      0.00000
     10      12.0759      0.00000
     11      12.2697      0.00000
     12      16.4229      0.00000

 k-point   257 :       0.1250    0.1250    0.5000
  band No.  band energies     occupation 
      1      -4.8026      2.00000
      2      -0.0912      2.00000
      3       2.4191      2.00000
      4       3.0097      2.00000
      5       5.2986      2.00000
      6       7.5708      0.00000
      7       8.2790      0.00000
      8       8.6193      0.00000
      9       9.2306      0.00000
     10      13.8247      0.00000
     11      15.0834      0.00000
     12      16.3310      0.00000

 k-point   258 :       0.1875    0.1250    0.5000
  band No.  band energies     occupation 
      1      -4.5276      2.00000
      2       0.4830      2.00000
      3       1.4978      2.00000
      4       2.4294      2.00000
      5       4.7787      2.00000
      6       7.9678      0.00000
      7       8.4430      0.00000
      8       9.0721      0.00000
      9       9.9074      0.00000
     10      13.6761      0.00000
     11      14.6381      0.00000
     12      17.3432      0.00000

 k-point   259 :       0.2500    0.1250    0.5000
  band No.  band energies     occupation 
      1      -4.1791      2.00000
      2       0.5714      2.00000
      3       1.1436      2.00000
      4       1.9732      2.00000
      5       4.2911      2.00000
      6       8.3728      0.00000
      7       8.6553      0.00000
      8       9.4979      0.00000
      9      10.4202      0.00000
     10      13.2429      0.00000
     11      14.1110      0.00000
     12      16.8431      0.00000

 k-point   260 :       0.3125    0.1250    0.5000
  band No.  band energies     occupation 
      1      -3.7747      2.00000
      2      -0.2787      2.00000
      3       1.6445      2.00000
      4       1.8220      2.00000
      5       3.8607      2.00000
      6       8.6275      0.00000
      7       8.9876      0.00000
      8       9.9032      0.00000
      9      10.7108      0.00000
     10      12.6509      0.00000
     11      13.6311      0.00000
     12      16.0263      0.00000

 k-point   261 :       0.3750    0.1250    0.5000
  band No.  band energies     occupation 
      1      -3.3760      2.00000
      2      -0.9561      2.00000
      3       1.4459      2.00000
      4       2.4299      2.00000
      5       3.4805      2.00000
      6       8.7452      0.00000
      7       9.3136      0.00000
      8      10.2667      0.00000
      9      10.7800      0.00000
     10      12.1338      0.00000
     11      13.2912      0.00000
     12      15.5339      0.00000

 k-point   262 :       0.4375    0.1250    0.5000
  band No.  band energies     occupation 
      1      -3.1768      2.00000
      2      -1.2501      2.00000
      3       1.3794      2.00000
      4       2.7819      2.00000
      5       3.2225      2.00000
      6       8.7826      0.00000
      7       9.4473      0.00000
      8      10.4729      0.00000
      9      10.7218      0.00000
     10      11.9254      0.00000
     11      13.1674      0.00000
     12      15.3606      0.00000

 k-point   263 :       0.1875    0.1875    0.5000
  band No.  band energies     occupation 
      1      -4.2129      2.00000
      2       0.7392      2.00000
      3       1.0825      2.00000
      4       1.8852      2.00000
      5       4.3428      2.00000
      6       8.3249      0.00000
      7       8.6594      0.00000
      8       9.4370      0.00000
      9      10.4078      0.00000
     10      13.3411      0.00000
     11      14.7649      0.00000
     12      16.3947      0.00000

 k-point   264 :       0.2500    0.1875    0.5000
  band No.  band energies     occupation 
      1      -3.8270      2.00000
      2      -0.0496      2.00000
      3       1.4757      2.00000
      4       1.7323      2.00000
      5       3.9494      2.00000
      6       8.5775      0.00000
      7       9.0059      0.00000
      8       9.7784      0.00000
      9      10.7009      0.00000
     10      12.8149      0.00000
     11      14.7332      0.00000
     12      15.8930      0.00000

 k-point   265 :       0.3125    0.1875    0.5000
  band No.  band energies     occupation 
      1      -3.3970      2.00000
      2      -0.7825      2.00000
      3       1.2076      2.00000
      4       2.3521      2.00000
      5       3.6092      2.00000
      6       8.7160      0.00000
      7       9.4053      0.00000
      8      10.0927      0.00000
      9      10.7779      0.00000
     10      12.2190      0.00000
     11      14.5515      0.00000
     12      14.8172      0.00000

 k-point   266 :       0.3750    0.1875    0.5000
  band No.  band energies     occupation 
      1      -3.0317      2.00000
      2      -1.3088      2.00000
      3       1.0751      2.00000
      4       2.8517      2.00000
      5       3.2990      2.00000
      6       8.7807      0.00000
      7       9.6921      0.00000
      8      10.3395      0.00000
      9      10.7146      0.00000
     10      11.7918      0.00000
     11      14.4235      0.00000
     12      14.4538      0.00000

 k-point   267 :       0.2500    0.2500    0.5000
  band No.  band energies     occupation 
      1      -3.4054      2.00000
      2      -0.6995      2.00000
      3       1.0984      2.00000
      4       2.3239      2.00000
      5       3.6589      2.00000
      6       8.7025      0.00000
      7       9.4470      0.00000
      8      10.0374      0.00000
      9      10.7772      0.00000
     10      12.2680      0.00000
     11      14.5362      0.00000
     12      15.5889      0.00000

 k-point   268 :       0.3125    0.2500    0.5000
  band No.  band energies     occupation 
      1      -2.9513      2.00000
      2      -1.3126      2.00000
      3       0.8732      2.00000
      4       2.8259      2.00000
      5       3.4194      2.00000
      6       8.7720      0.00000
      7       9.8835      0.00000
      8      10.2680      0.00000
      9      10.7156      0.00000
     10      11.6936      0.00000
     11      13.9299      0.00000
     12      15.8638      0.00000

 k-point   269 :       0.3750    0.2500    0.5000
  band No.  band energies     occupation 
      1      -2.6756      2.00000
      2      -1.6456      2.00000
      3       0.7991      2.00000
      4       3.1646      2.00000
      5       3.1876      2.00000
      6       8.7932      0.00000
      7      10.1183      0.00000
      8      10.3987      0.00000
      9      10.6363      0.00000
     10      11.3925      0.00000
     11      13.7292      0.00000
     12      15.8445      0.00000

 k-point   270 :       0.3125    0.3125    0.5000
  band No.  band energies     occupation 
      1      -2.4642      2.00000
      2      -1.8459      2.00000
      3       0.6976      2.00000
      4       3.1400      2.00000
      5       3.2924      2.00000
      6       8.7941      0.00000
      7      10.4068      0.00000
      8      10.4292      0.00000
      9      10.5975      0.00000
     10      11.1074      0.00000
     11      13.4801      0.00000
     12      17.4044      0.00000


--------------------------------------------------------------------------------------------------------


 soft charge-density along one line, spin component           1
         0         1         2         3         4         5         6         7         8         9
 total charge-density along one line
 
 pseudopotential strength for first ion, spin component:           1
 -2.117  -0.000  -0.000   0.000  -0.000  -1.848  -0.000  -0.000
 -0.000  -2.181  -0.000   0.000  -0.000  -0.000  -1.922  -0.000
 -0.000  -0.000  -2.187  -0.000   0.000  -0.000  -0.000  -1.930
  0.000   0.000  -0.000  -2.181   0.000   0.000   0.000  -0.000
 -0.000  -0.000   0.000   0.000  -2.117  -0.000  -0.000   0.000
 -1.848  -0.000  -0.000   0.000  -0.000  -1.406  -0.000  -0.000
 -0.000  -1.922  -0.000   0.000  -0.000  -0.000  -1.492  -0.000
 -0.000  -0.000  -1.930  -0.000   0.000  -0.000  -0.000  -1.503
  0.000   0.000  -0.000  -1.922   0.000   0.000   0.000  -0.000
 -0.000  -0.000   0.000   0.000  -1.848  -0.000  -0.000   0.000
 -0.000  -0.000   0.012  -0.000   0.000  -0.000  -0.000   0.014
  0.000   0.000  -0.022   0.000  -0.000   0.000   0.000  -0.025
  0.000  -0.000   0.000  -0.000   0.000   0.000  -0.000   0.000
 -0.000  -0.000  -0.000   0.000  -0.000  -0.000  -0.000  -0.000
 -0.000  -0.000  -0.000  -0.000   0.000  -0.000  -0.000  -0.000
 total augmentation occupancy for first ion, spin component:           1
  5.288   0.000  -0.000  -0.000  -0.000  -3.204  -0.000   0.000  -0.000   0.000   0.000   0.000   0.000   0.000   0.000
 -0.000   7.924   0.000   0.000  -0.000   0.000  -5.234  -0.000   0.000  -0.000   0.000   0.000   0.000   0.000   0.000
 -0.000  -0.000   4.474   0.000  -0.000   0.000   0.000  -2.745   0.000   0.000   0.232   0.043   0.000   0.000   0.000
  0.000   0.000   0.000   7.924   0.000   0.000   0.000   0.000  -5.234   0.000  -0.000   0.000   0.000   0.000   0.000
 -0.000  -0.000  -0.000   0.000   5.288   0.000   0.000   0.000   0.000  -3.204   0.000  -0.000   0.000   0.000   0.000
 -3.204   0.000   0.000   0.000   0.000   1.986  -0.000  -0.000   0.000  -0.000  -0.000  -0.000   0.000   0.000   0.000
  0.000  -5.234  -0.000   0.000   0.000  -0.000   3.512  -0.000   0.000  -0.000  -0.000   0.000   0.000   0.000   0.000
  0.000  -0.000  -2.745   0.000   0.000  -0.000   0.000   1.738   0.000  -0.000  -0.245  -0.035   0.000   0.000   0.000
 -0.000   0.000   0.000  -5.234   0.000   0.000   0.000   0.000   3.512   0.000   0.000   0.000   0.000   0.000   0.000
  0.000  -0.000   0.000   0.000  -3.204  -0.000  -0.000  -0.000   0.000   1.986  -0.000   0.000   0.000   0.000   0.000
  0.000   0.000   0.232   0.000   0.000  -0.000   0.000  -0.245   0.000   0.000   1.877   0.126   0.000   0.000   0.000
  0.000   0.000   0.043   0.000  -0.000  -0.000   0.000  -0.035   0.000   0.000   0.126   0.010   0.000   0.000   0.000
  0.000   0.000   0.000   0.000   0.000   0.000   0.000   0.000   0.000   0.000   0.000   0.000   0.449  -0.000  -0.000
  0.000   0.000   0.000   0.000   0.000   0.000   0.000   0.000   0.000   0.000   0.000   0.000  -0.000   0.435  -0.000
  0.000   0.000   0.000   0.000   0.000   0.000   0.000   0.000   0.000   0.000   0.000   0.000   0.000  -0.000   0.449


------------------------ aborting loop because EDIFF is reached ----------------------------------------


    CHARGE:  cpu time    0.0290: real time    0.0283
    FORLOC:  cpu time    0.0000: real time    0.0003
    FORNL :  cpu time    0.0460: real time    0.0451
    STRESS:  cpu time    0.2690: real time    0.2690
    FORCOR:  cpu time    0.0040: real time    0.0037
    FORHAR:  cpu time    0.0010: real time    0.0008
    MIXING:  cpu time    0.0000: real time    0.0002
    OFIELD:  cpu time    0.0000: real time    0.0000

  FORCE on cell =-STRESS in cart. coord.  units (eV):
  Direction    XX          YY          ZZ          XY          YZ          ZX
  --------------------------------------------------------------------------------------
  Alpha Z    52.13470    52.13470    52.13470
  Ewald    -100.15889  -100.15889  -133.47218    -0.00000    -0.00000    -0.00000
  Hartree     7.43148     7.43148    -4.04038    -0.00000    -0.00000    -0.00000
  E(xc)     -36.10413   -36.10413   -36.11968     0.00000     0.00000     0.00000
  Local     -17.24096   -17.24096    25.96530    -0.00000     0.00000     0.00000
  n-local    -5.19731    -5.93972    -5.97906    -1.09275     0.38648     0.44381
  augment     6.33516     6.33516     5.93589     0.00000     0.00000     0.00000
  Kinetic    91.04515    95.30018    95.57741    -2.49226     0.66850    -0.29919
  Fock        0.00000     0.00000     0.00000     0.00000     0.00000     0.00000
  -------------------------------------------------------------------------------------
  Total       0.00150     0.00150     0.00199     0.00000     0.00000     0.00000
  in kB       0.09381     0.09381     0.12438     0.00000     0.00000     0.00000
  external pressure =        0.10 kB  Pullay stress =        0.00 kB


 VOLUME and BASIS-vectors are now :
 -----------------------------------------------------------------------------
  energy-cutoff  :      600.00
  volume of cell :       25.70
      direct lattice vectors                 reciprocal lattice vectors
     3.032935232 -0.000000000  0.000000000     0.329713602  0.190360237  0.000000000
    -1.516467616  2.626598959 -0.000000000     0.000000000  0.380720474  0.000000000
    -0.000000000 -0.000000000  3.225689512    -0.000000000  0.000000000  0.310011238

  length of vectors
     3.032935232  3.032935232  3.225689512     0.380720474  0.380720474  0.310011238


 FORCES acting on ions
    electron-ion (+dipol)            ewald-force                    non-local-force                 convergence-correction
 -----------------------------------------------------------------------------------------------
   0.180E-14 0.322E-15 -.222E-14   0.152E-15 -.132E-14 -.190E-14   0.289E-23 -.272E-26 0.000E+00   0.267E-15 0.227E-15 0.687E-15
   -.142E-07 0.822E-08 -.171E-12   -.522E-11 0.300E-11 0.102E-14   0.971E-16 -.694E-17 0.000E+00   -.103E-09 0.595E-10 -.915E-15
   0.142E-07 -.822E-08 -.395E-12   0.522E-11 -.299E-11 0.104E-14   -.555E-16 0.694E-17 0.000E+00   0.103E-09 -.595E-10 -.906E-15
 -----------------------------------------------------------------------------------------------
   -.166E-13 0.258E-13 -.568E-12   0.914E-15 0.463E-15 0.160E-15   0.416E-16 -.817E-26 0.000E+00   -.930E-17 -.421E-16 -.113E-14
 
 
 POSITION                                       TOTAL-FORCE (eV/Angst)
 -----------------------------------------------------------------------------------
     -0.00000     -0.00000     -0.00000        -0.000000      0.000000     -0.000000
      0.00000      1.75107      1.61284         0.000000      0.000000      0.000000
      1.51647      0.87553      1.61284        -0.000000     -0.000000     -0.000000
 -----------------------------------------------------------------------------------
    total drift:                               -0.000000      0.000000     -0.000000


--------------------------------------------------------------------------------------------------------



  FREE ENERGIE OF THE ION-ELECTRON SYSTEM (eV)
  ---------------------------------------------------
  free  energy   TOTEN  =       -24.30752615 eV

  energy  without entropy=      -24.30712048  energy(sigma->0) =      -24.30732331
  enthalpy is  TOTEN    =       -24.30751011 eV   P V=        0.00001604

 d Force = 0.0000000E+00[ 0.000E+00, 0.000E+00]  d Energy = 0.1032701E-06-0.103E-06
 d Force = 0.0000000E+00[ 0.000E+00, 0.000E+00]  d Ewald  = 0.4479068E-02-0.448E-02


--------------------------------------------------------------------------------------------------------


    POTLOK:  cpu time    0.0060: real time    0.0065


--------------------------------------------------------------------------------------------------------


 Quasi-Newton relaxation of ions (Broydens 2nd method)
  g(Force)  = 0.267E-49   g(Stress)= 0.134E-06

 retain information from N=  2 steps
 eigenvalues of (default step * inverse Hessian matrix)
  average eigenvalue of G=   0.4399
 eigenvalue spectrum of G is  0.4399  0.4399


--------------------------------------------------------------------------------------------------------


  
 reached required accuracy - stopping structural energy minimisation
     LOOP+:  cpu time    1.4088: real time    1.4166
    4ORBIT:  cpu time    0.0000: real time    0.0000

 total amount of memory used by VASP MPI-rank0    41472. kBytes
=======================================================================

   base      :      30000. kBytes
   nonl-proj :       8819. kBytes
   fftplans  :        257. kBytes
   grid      :        417. kBytes
   one-center:         10. kBytes
   wavefun   :       1969. kBytes
 
  
  
 General timing and accounting informations for this job:
 ========================================================
  
                  Total CPU time used (sec):       14.529
                            User time (sec):       14.378
                          System time (sec):        0.151
                         Elapsed time (sec):       14.546
  
                   Maximum memory used (kb):       71032.
                   Average memory used (kb):           0.
  
                          Minor page faults:        10013
                          Major page faults:            0
                 Voluntary context switches:          281
