<?xml version="1.0" encoding="ISO-8859-1"?>
<modeling>
 <generator>
  <i name="program" type="string">vasp </i>
  <i name="version" type="string">5.4.4.18Apr17-6-g9f103f2a35  </i>
  <i name="subversion" type="string">(build Nov 22 2017 20:28:56) complex            parallel </i>
  <i name="platform" type="string">LinuxIFC </i>
  <i name="date" type="string">2019 09 11 </i>
  <i name="time" type="string">22:43:18 </i>
 </generator>
 <incar>
  <i type="int" name="ISTART">     0</i>
  <i type="string" name="PREC">accurate</i>
  <i type="int" name="IALGO">    48</i>
  <i type="string" name="ALGO"> Very Fast</i>
  <i type="int" name="NSIM">     4</i>
  <i type="int" name="IBRION">     1</i>
  <i name="EDIFF">      0.00000100</i>
  <i name="EDIFFG">     -0.00100000</i>
  <i type="int" name="NSW">    50</i>
  <i type="int" name="ISIF">     3</i>
  <i type="int" name="ISYM">     2</i>
  <i name="ENCUT">    600.00000000</i>
  <i name="POTIM">      0.50000000</i>
  <i type="logical" name="LPLANE"> T  </i>
  <i type="int" name="ISMEAR">     0</i>
  <i name="SIGMA">      0.05000000</i>
  <i name="PSTRESS">      0.00100000</i>
  <i type="logical" name="LWAVE"> F  </i>
  <i type="logical" name="LCHARG"> F  </i>
  <v type="int" name="KPOINT_BSE">    -1     0     0     0</v>
 </incar>
 <structure name="primitive_cell" >
  <crystal>
   <varray name="basis" >
    <v>       3.03297039       0.00000000       0.00000000 </v>
    <v>      -1.51648520       2.62662941       0.00000000 </v>
    <v>       0.00000000       0.00000000       3.22588138 </v>
   </varray>
   <i name="volume">     25.69894931 </i>
   <varray name="rec_basis" >
    <v>       0.32970978       0.19035803       0.00000000 </v>
    <v>       0.00000000       0.38071606       0.00000000 </v>
    <v>       0.00000000       0.00000000       0.30999280 </v>
   </varray>
  </crystal>
  <varray name="positions" >
   <v>       0.00000000       0.00000000       0.00000000 </v>
   <v>       0.33333333      -0.33333333      -0.50000000 </v>
   <v>      -0.33333333       0.33333333      -0.50000000 </v>
  </varray>
 </structure>
 <varray name="primitive_index" >
  <v type="int" >        1 </v>
  <v type="int" >        2 </v>
  <v type="int" >        3 </v>
 </varray>
 <kpoints>
  <generation param="Gamma">
   <v type="int" name="divisions">      16       16       16 </v>
   <v name="usershift">      0.00000000       0.00000000       0.00000000 </v>
   <v name="genvec1">      0.06250000      -0.00000000       0.00000000 </v>
   <v name="genvec2">      0.00000000       0.06250000       0.00000000 </v>
   <v name="genvec3">      0.00000000       0.00000000       0.06250000 </v>
   <v name="shift">      0.00000000       0.00000000       0.00000000 </v>
  </generation>
  <varray name="kpointlist" >
   <v>       0.00000000       0.00000000       0.00000000 </v>
   <v>       0.06250000       0.00000000       0.00000000 </v>
   <v>       0.12500000       0.00000000       0.00000000 </v>
   <v>       0.18750000       0.00000000       0.00000000 </v>
   <v>       0.25000000       0.00000000       0.00000000 </v>
   <v>       0.31250000       0.00000000       0.00000000 </v>
   <v>       0.37500000       0.00000000       0.00000000 </v>
   <v>       0.43750000       0.00000000       0.00000000 </v>
   <v>       0.50000000       0.00000000       0.00000000 </v>
   <v>       0.06250000       0.06250000       0.00000000 </v>
   <v>       0.12500000       0.06250000       0.00000000 </v>
   <v>       0.18750000       0.06250000       0.00000000 </v>
   <v>       0.25000000       0.06250000       0.00000000 </v>
   <v>       0.31250000       0.06250000       0.00000000 </v>
   <v>       0.37500000       0.06250000       0.00000000 </v>
   <v>       0.43750000       0.06250000       0.00000000 </v>
   <v>       0.12500000       0.12500000       0.00000000 </v>
   <v>       0.18750000       0.12500000       0.00000000 </v>
   <v>       0.25000000       0.12500000       0.00000000 </v>
   <v>       0.31250000       0.12500000       0.00000000 </v>
   <v>       0.37500000       0.12500000       0.00000000 </v>
   <v>       0.43750000       0.12500000       0.00000000 </v>
   <v>       0.18750000       0.18750000       0.00000000 </v>
   <v>       0.25000000       0.18750000       0.00000000 </v>
   <v>       0.31250000       0.18750000       0.00000000 </v>
   <v>       0.37500000       0.18750000       0.00000000 </v>
   <v>       0.25000000       0.25000000       0.00000000 </v>
   <v>       0.31250000       0.25000000       0.00000000 </v>
   <v>       0.37500000       0.25000000       0.00000000 </v>
   <v>       0.31250000       0.31250000       0.00000000 </v>
   <v>       0.00000000       0.00000000       0.06250000 </v>
   <v>       0.06250000       0.00000000       0.06250000 </v>
   <v>       0.12500000       0.00000000       0.06250000 </v>
   <v>       0.18750000       0.00000000       0.06250000 </v>
   <v>       0.25000000       0.00000000       0.06250000 </v>
   <v>       0.31250000       0.00000000       0.06250000 </v>
   <v>       0.37500000       0.00000000       0.06250000 </v>
   <v>       0.43750000       0.00000000       0.06250000 </v>
   <v>       0.50000000       0.00000000       0.06250000 </v>
   <v>       0.06250000       0.06250000       0.06250000 </v>
   <v>       0.12500000       0.06250000       0.06250000 </v>
   <v>       0.18750000       0.06250000       0.06250000 </v>
   <v>       0.25000000       0.06250000       0.06250000 </v>
   <v>       0.31250000       0.06250000       0.06250000 </v>
   <v>       0.37500000       0.06250000       0.06250000 </v>
   <v>       0.43750000       0.06250000       0.06250000 </v>
   <v>       0.12500000       0.12500000       0.06250000 </v>
   <v>       0.18750000       0.12500000       0.06250000 </v>
   <v>       0.25000000       0.12500000       0.06250000 </v>
   <v>       0.31250000       0.12500000       0.06250000 </v>
   <v>       0.37500000       0.12500000       0.06250000 </v>
   <v>       0.43750000       0.12500000       0.06250000 </v>
   <v>       0.18750000       0.18750000       0.06250000 </v>
   <v>       0.25000000       0.18750000       0.06250000 </v>
   <v>       0.31250000       0.18750000       0.06250000 </v>
   <v>       0.37500000       0.18750000       0.06250000 </v>
   <v>       0.25000000       0.25000000       0.06250000 </v>
   <v>       0.31250000       0.25000000       0.06250000 </v>
   <v>       0.37500000       0.25000000       0.06250000 </v>
   <v>       0.31250000       0.31250000       0.06250000 </v>
   <v>       0.00000000       0.00000000       0.12500000 </v>
   <v>       0.06250000       0.00000000       0.12500000 </v>
   <v>       0.12500000       0.00000000       0.12500000 </v>
   <v>       0.18750000       0.00000000       0.12500000 </v>
   <v>       0.25000000       0.00000000       0.12500000 </v>
   <v>       0.31250000       0.00000000       0.12500000 </v>
   <v>       0.37500000       0.00000000       0.12500000 </v>
   <v>       0.43750000       0.00000000       0.12500000 </v>
   <v>       0.50000000       0.00000000       0.12500000 </v>
   <v>       0.06250000       0.06250000       0.12500000 </v>
   <v>       0.12500000       0.06250000       0.12500000 </v>
   <v>       0.18750000       0.06250000       0.12500000 </v>
   <v>       0.25000000       0.06250000       0.12500000 </v>
   <v>       0.31250000       0.06250000       0.12500000 </v>
   <v>       0.37500000       0.06250000       0.12500000 </v>
   <v>       0.43750000       0.06250000       0.12500000 </v>
   <v>       0.12500000       0.12500000       0.12500000 </v>
   <v>       0.18750000       0.12500000       0.12500000 </v>
   <v>       0.25000000       0.12500000       0.12500000 </v>
   <v>       0.31250000       0.12500000       0.12500000 </v>
   <v>       0.37500000       0.12500000       0.12500000 </v>
   <v>       0.43750000       0.12500000       0.12500000 </v>
   <v>       0.18750000       0.18750000       0.12500000 </v>
   <v>       0.25000000       0.18750000       0.12500000 </v>
   <v>       0.31250000       0.18750000       0.12500000 </v>
   <v>       0.37500000       0.18750000       0.12500000 </v>
   <v>       0.25000000       0.25000000       0.12500000 </v>
   <v>       0.31250000       0.25000000       0.12500000 </v>
   <v>       0.37500000       0.25000000       0.12500000 </v>
   <v>       0.31250000       0.31250000       0.12500000 </v>
   <v>       0.00000000       0.00000000       0.18750000 </v>
   <v>       0.06250000       0.00000000       0.18750000 </v>
   <v>       0.12500000       0.00000000       0.18750000 </v>
   <v>       0.18750000       0.00000000       0.18750000 </v>
   <v>       0.25000000       0.00000000       0.18750000 </v>
   <v>       0.31250000       0.00000000       0.18750000 </v>
   <v>       0.37500000       0.00000000       0.18750000 </v>
   <v>       0.43750000       0.00000000       0.18750000 </v>
   <v>       0.50000000       0.00000000       0.18750000 </v>
   <v>       0.06250000       0.06250000       0.18750000 </v>
   <v>       0.12500000       0.06250000       0.18750000 </v>
   <v>       0.18750000       0.06250000       0.18750000 </v>
   <v>       0.25000000       0.06250000       0.18750000 </v>
   <v>       0.31250000       0.06250000       0.18750000 </v>
   <v>       0.37500000       0.06250000       0.18750000 </v>
   <v>       0.43750000       0.06250000       0.18750000 </v>
   <v>       0.12500000       0.12500000       0.18750000 </v>
   <v>       0.18750000       0.12500000       0.18750000 </v>
   <v>       0.25000000       0.12500000       0.18750000 </v>
   <v>       0.31250000       0.12500000       0.18750000 </v>
   <v>       0.37500000       0.12500000       0.18750000 </v>
   <v>       0.43750000       0.12500000       0.18750000 </v>
   <v>       0.18750000       0.18750000       0.18750000 </v>
   <v>       0.25000000       0.18750000       0.18750000 </v>
   <v>       0.31250000       0.18750000       0.18750000 </v>
   <v>       0.37500000       0.18750000       0.18750000 </v>
   <v>       0.25000000       0.25000000       0.18750000 </v>
   <v>       0.31250000       0.25000000       0.18750000 </v>
   <v>       0.37500000       0.25000000       0.18750000 </v>
   <v>       0.31250000       0.31250000       0.18750000 </v>
   <v>       0.00000000       0.00000000       0.25000000 </v>
   <v>       0.06250000       0.00000000       0.25000000 </v>
   <v>       0.12500000       0.00000000       0.25000000 </v>
   <v>       0.18750000       0.00000000       0.25000000 </v>
   <v>       0.25000000       0.00000000       0.25000000 </v>
   <v>       0.31250000       0.00000000       0.25000000 </v>
   <v>       0.37500000       0.00000000       0.25000000 </v>
   <v>       0.43750000       0.00000000       0.25000000 </v>
   <v>       0.50000000       0.00000000       0.25000000 </v>
   <v>       0.06250000       0.06250000       0.25000000 </v>
   <v>       0.12500000       0.06250000       0.25000000 </v>
   <v>       0.18750000       0.06250000       0.25000000 </v>
   <v>       0.25000000       0.06250000       0.25000000 </v>
   <v>       0.31250000       0.06250000       0.25000000 </v>
   <v>       0.37500000       0.06250000       0.25000000 </v>
   <v>       0.43750000       0.06250000       0.25000000 </v>
   <v>       0.12500000       0.12500000       0.25000000 </v>
   <v>       0.18750000       0.12500000       0.25000000 </v>
   <v>       0.25000000       0.12500000       0.25000000 </v>
   <v>       0.31250000       0.12500000       0.25000000 </v>
   <v>       0.37500000       0.12500000       0.25000000 </v>
   <v>       0.43750000       0.12500000       0.25000000 </v>
   <v>       0.18750000       0.18750000       0.25000000 </v>
   <v>       0.25000000       0.18750000       0.25000000 </v>
   <v>       0.31250000       0.18750000       0.25000000 </v>
   <v>       0.37500000       0.18750000       0.25000000 </v>
   <v>       0.25000000       0.25000000       0.25000000 </v>
   <v>       0.31250000       0.25000000       0.25000000 </v>
   <v>       0.37500000       0.25000000       0.25000000 </v>
   <v>       0.31250000       0.31250000       0.25000000 </v>
   <v>       0.00000000       0.00000000       0.31250000 </v>
   <v>       0.06250000       0.00000000       0.31250000 </v>
   <v>       0.12500000       0.00000000       0.31250000 </v>
   <v>       0.18750000       0.00000000       0.31250000 </v>
   <v>       0.25000000       0.00000000       0.31250000 </v>
   <v>       0.31250000       0.00000000       0.31250000 </v>
   <v>       0.37500000       0.00000000       0.31250000 </v>
   <v>       0.43750000       0.00000000       0.31250000 </v>
   <v>       0.50000000       0.00000000       0.31250000 </v>
   <v>       0.06250000       0.06250000       0.31250000 </v>
   <v>       0.12500000       0.06250000       0.31250000 </v>
   <v>       0.18750000       0.06250000       0.31250000 </v>
   <v>       0.25000000       0.06250000       0.31250000 </v>
   <v>       0.31250000       0.06250000       0.31250000 </v>
   <v>       0.37500000       0.06250000       0.31250000 </v>
   <v>       0.43750000       0.06250000       0.31250000 </v>
   <v>       0.12500000       0.12500000       0.31250000 </v>
   <v>       0.18750000       0.12500000       0.31250000 </v>
   <v>       0.25000000       0.12500000       0.31250000 </v>
   <v>       0.31250000       0.12500000       0.31250000 </v>
   <v>       0.37500000       0.12500000       0.31250000 </v>
   <v>       0.43750000       0.12500000       0.31250000 </v>
   <v>       0.18750000       0.18750000       0.31250000 </v>
   <v>       0.25000000       0.18750000       0.31250000 </v>
   <v>       0.31250000       0.18750000       0.31250000 </v>
   <v>       0.37500000       0.18750000       0.31250000 </v>
   <v>       0.25000000       0.25000000       0.31250000 </v>
   <v>       0.31250000       0.25000000       0.31250000 </v>
   <v>       0.37500000       0.25000000       0.31250000 </v>
   <v>       0.31250000       0.31250000       0.31250000 </v>
   <v>       0.00000000       0.00000000       0.37500000 </v>
   <v>       0.06250000       0.00000000       0.37500000 </v>
   <v>       0.12500000       0.00000000       0.37500000 </v>
   <v>       0.18750000       0.00000000       0.37500000 </v>
   <v>       0.25000000       0.00000000       0.37500000 </v>
   <v>       0.31250000       0.00000000       0.37500000 </v>
   <v>       0.37500000       0.00000000       0.37500000 </v>
   <v>       0.43750000       0.00000000       0.37500000 </v>
   <v>       0.50000000       0.00000000       0.37500000 </v>
   <v>       0.06250000       0.06250000       0.37500000 </v>
   <v>       0.12500000       0.06250000       0.37500000 </v>
   <v>       0.18750000       0.06250000       0.37500000 </v>
   <v>       0.25000000       0.06250000       0.37500000 </v>
   <v>       0.31250000       0.06250000       0.37500000 </v>
   <v>       0.37500000       0.06250000       0.37500000 </v>
   <v>       0.43750000       0.06250000       0.37500000 </v>
   <v>       0.12500000       0.12500000       0.37500000 </v>
   <v>       0.18750000       0.12500000       0.37500000 </v>
   <v>       0.25000000       0.12500000       0.37500000 </v>
   <v>       0.31250000       0.12500000       0.37500000 </v>
   <v>       0.37500000       0.12500000       0.37500000 </v>
   <v>       0.43750000       0.12500000       0.37500000 </v>
   <v>       0.18750000       0.18750000       0.37500000 </v>
   <v>       0.25000000       0.18750000       0.37500000 </v>
   <v>       0.31250000       0.18750000       0.37500000 </v>
   <v>       0.37500000       0.18750000       0.37500000 </v>
   <v>       0.25000000       0.25000000       0.37500000 </v>
   <v>       0.31250000       0.25000000       0.37500000 </v>
   <v>       0.37500000       0.25000000       0.37500000 </v>
   <v>       0.31250000       0.31250000       0.37500000 </v>
   <v>       0.00000000       0.00000000       0.43750000 </v>
   <v>       0.06250000       0.00000000       0.43750000 </v>
   <v>       0.12500000       0.00000000       0.43750000 </v>
   <v>       0.18750000       0.00000000       0.43750000 </v>
   <v>       0.25000000       0.00000000       0.43750000 </v>
   <v>       0.31250000       0.00000000       0.43750000 </v>
   <v>       0.37500000       0.00000000       0.43750000 </v>
   <v>       0.43750000       0.00000000       0.43750000 </v>
   <v>       0.50000000       0.00000000       0.43750000 </v>
   <v>       0.06250000       0.06250000       0.43750000 </v>
   <v>       0.12500000       0.06250000       0.43750000 </v>
   <v>       0.18750000       0.06250000       0.43750000 </v>
   <v>       0.25000000       0.06250000       0.43750000 </v>
   <v>       0.31250000       0.06250000       0.43750000 </v>
   <v>       0.37500000       0.06250000       0.43750000 </v>
   <v>       0.43750000       0.06250000       0.43750000 </v>
   <v>       0.12500000       0.12500000       0.43750000 </v>
   <v>       0.18750000       0.12500000       0.43750000 </v>
   <v>       0.25000000       0.12500000       0.43750000 </v>
   <v>       0.31250000       0.12500000       0.43750000 </v>
   <v>       0.37500000       0.12500000       0.43750000 </v>
   <v>       0.43750000       0.12500000       0.43750000 </v>
   <v>       0.18750000       0.18750000       0.43750000 </v>
   <v>       0.25000000       0.18750000       0.43750000 </v>
   <v>       0.31250000       0.18750000       0.43750000 </v>
   <v>       0.37500000       0.18750000       0.43750000 </v>
   <v>       0.25000000       0.25000000       0.43750000 </v>
   <v>       0.31250000       0.25000000       0.43750000 </v>
   <v>       0.37500000       0.25000000       0.43750000 </v>
   <v>       0.31250000       0.31250000       0.43750000 </v>
   <v>       0.00000000       0.00000000       0.50000000 </v>
   <v>       0.06250000       0.00000000       0.50000000 </v>
   <v>       0.12500000       0.00000000       0.50000000 </v>
   <v>       0.18750000       0.00000000       0.50000000 </v>
   <v>       0.25000000       0.00000000       0.50000000 </v>
   <v>       0.31250000       0.00000000       0.50000000 </v>
   <v>       0.37500000       0.00000000       0.50000000 </v>
   <v>       0.43750000       0.00000000       0.50000000 </v>
   <v>       0.50000000       0.00000000       0.50000000 </v>
   <v>       0.06250000       0.06250000       0.50000000 </v>
   <v>       0.12500000       0.06250000       0.50000000 </v>
   <v>       0.18750000       0.06250000       0.50000000 </v>
   <v>       0.25000000       0.06250000       0.50000000 </v>
   <v>       0.31250000       0.06250000       0.50000000 </v>
   <v>       0.37500000       0.06250000       0.50000000 </v>
   <v>       0.43750000       0.06250000       0.50000000 </v>
   <v>       0.12500000       0.12500000       0.50000000 </v>
   <v>       0.18750000       0.12500000       0.50000000 </v>
   <v>       0.25000000       0.12500000       0.50000000 </v>
   <v>       0.31250000       0.12500000       0.50000000 </v>
   <v>       0.37500000       0.12500000       0.50000000 </v>
   <v>       0.43750000       0.12500000       0.50000000 </v>
   <v>       0.18750000       0.18750000       0.50000000 </v>
   <v>       0.25000000       0.18750000       0.50000000 </v>
   <v>       0.31250000       0.18750000       0.50000000 </v>
   <v>       0.37500000       0.18750000       0.50000000 </v>
   <v>       0.25000000       0.25000000       0.50000000 </v>
   <v>       0.31250000       0.25000000       0.50000000 </v>
   <v>       0.37500000       0.25000000       0.50000000 </v>
   <v>       0.31250000       0.31250000       0.50000000 </v>
  </varray>
  <varray name="weights" >
   <v>       0.00024414 </v>
   <v>       0.00146484 </v>
   <v>       0.00146484 </v>
   <v>       0.00146484 </v>
   <v>       0.00146484 </v>
   <v>       0.00146484 </v>
   <v>       0.00146484 </v>
   <v>       0.00146484 </v>
   <v>       0.00073242 </v>
   <v>       0.00146484 </v>
   <v>       0.00292969 </v>
   <v>       0.00292969 </v>
   <v>       0.00292969 </v>
   <v>       0.00292969 </v>
   <v>       0.00292969 </v>
   <v>       0.00292969 </v>
   <v>       0.00146484 </v>
   <v>       0.00292969 </v>
   <v>       0.00292969 </v>
   <v>       0.00292969 </v>
   <v>       0.00292969 </v>
   <v>       0.00146484 </v>
   <v>       0.00146484 </v>
   <v>       0.00292969 </v>
   <v>       0.00292969 </v>
   <v>       0.00292969 </v>
   <v>       0.00146484 </v>
   <v>       0.00292969 </v>
   <v>       0.00146484 </v>
   <v>       0.00146484 </v>
   <v>       0.00048828 </v>
   <v>       0.00292969 </v>
   <v>       0.00292969 </v>
   <v>       0.00292969 </v>
   <v>       0.00292969 </v>
   <v>       0.00292969 </v>
   <v>       0.00292969 </v>
   <v>       0.00292969 </v>
   <v>       0.00146484 </v>
   <v>       0.00292969 </v>
   <v>       0.00585938 </v>
   <v>       0.00585938 </v>
   <v>       0.00585938 </v>
   <v>       0.00585938 </v>
   <v>       0.00585938 </v>
   <v>       0.00585938 </v>
   <v>       0.00292969 </v>
   <v>       0.00585938 </v>
   <v>       0.00585938 </v>
   <v>       0.00585938 </v>
   <v>       0.00585938 </v>
   <v>       0.00292969 </v>
   <v>       0.00292969 </v>
   <v>       0.00585938 </v>
   <v>       0.00585938 </v>
   <v>       0.00585938 </v>
   <v>       0.00292969 </v>
   <v>       0.00585938 </v>
   <v>       0.00292969 </v>
   <v>       0.00292969 </v>
   <v>       0.00048828 </v>
   <v>       0.00292969 </v>
   <v>       0.00292969 </v>
   <v>       0.00292969 </v>
   <v>       0.00292969 </v>
   <v>       0.00292969 </v>
   <v>       0.00292969 </v>
   <v>       0.00292969 </v>
   <v>       0.00146484 </v>
   <v>       0.00292969 </v>
   <v>       0.00585938 </v>
   <v>       0.00585938 </v>
   <v>       0.00585938 </v>
   <v>       0.00585938 </v>
   <v>       0.00585938 </v>
   <v>       0.00585938 </v>
   <v>       0.00292969 </v>
   <v>       0.00585938 </v>
   <v>       0.00585938 </v>
   <v>       0.00585938 </v>
   <v>       0.00585938 </v>
   <v>       0.00292969 </v>
   <v>       0.00292969 </v>
   <v>       0.00585938 </v>
   <v>       0.00585938 </v>
   <v>       0.00585938 </v>
   <v>       0.00292969 </v>
   <v>       0.00585938 </v>
   <v>       0.00292969 </v>
   <v>       0.00292969 </v>
   <v>       0.00048828 </v>
   <v>       0.00292969 </v>
   <v>       0.00292969 </v>
   <v>       0.00292969 </v>
   <v>       0.00292969 </v>
   <v>       0.00292969 </v>
   <v>       0.00292969 </v>
   <v>       0.00292969 </v>
   <v>       0.00146484 </v>
   <v>       0.00292969 </v>
   <v>       0.00585938 </v>
   <v>       0.00585938 </v>
   <v>       0.00585938 </v>
   <v>       0.00585938 </v>
   <v>       0.00585938 </v>
   <v>       0.00585938 </v>
   <v>       0.00292969 </v>
   <v>       0.00585938 </v>
   <v>       0.00585938 </v>
   <v>       0.00585938 </v>
   <v>       0.00585938 </v>
   <v>       0.00292969 </v>
   <v>       0.00292969 </v>
   <v>       0.00585938 </v>
   <v>       0.00585938 </v>
   <v>       0.00585938 </v>
   <v>       0.00292969 </v>
   <v>       0.00585938 </v>
   <v>       0.00292969 </v>
   <v>       0.00292969 </v>
   <v>       0.00048828 </v>
   <v>       0.00292969 </v>
   <v>       0.00292969 </v>
   <v>       0.00292969 </v>
   <v>       0.00292969 </v>
   <v>       0.00292969 </v>
   <v>       0.00292969 </v>
   <v>       0.00292969 </v>
   <v>       0.00146484 </v>
   <v>       0.00292969 </v>
   <v>       0.00585938 </v>
   <v>       0.00585938 </v>
   <v>       0.00585938 </v>
   <v>       0.00585938 </v>
   <v>       0.00585938 </v>
   <v>       0.00585938 </v>
   <v>       0.00292969 </v>
   <v>       0.00585938 </v>
   <v>       0.00585938 </v>
   <v>       0.00585938 </v>
   <v>       0.00585938 </v>
   <v>       0.00292969 </v>
   <v>       0.00292969 </v>
   <v>       0.00585938 </v>
   <v>       0.00585938 </v>
   <v>       0.00585938 </v>
   <v>       0.00292969 </v>
   <v>       0.00585938 </v>
   <v>       0.00292969 </v>
   <v>       0.00292969 </v>
   <v>       0.00048828 </v>
   <v>       0.00292969 </v>
   <v>       0.00292969 </v>
   <v>       0.00292969 </v>
   <v>       0.00292969 </v>
   <v>       0.00292969 </v>
   <v>       0.00292969 </v>
   <v>       0.00292969 </v>
   <v>       0.00146484 </v>
   <v>       0.00292969 </v>
   <v>       0.00585938 </v>
   <v>       0.00585938 </v>
   <v>       0.00585938 </v>
   <v>       0.00585938 </v>
   <v>       0.00585938 </v>
   <v>       0.00585938 </v>
   <v>       0.00292969 </v>
   <v>       0.00585938 </v>
   <v>       0.00585938 </v>
   <v>       0.00585938 </v>
   <v>       0.00585938 </v>
   <v>       0.00292969 </v>
   <v>       0.00292969 </v>
   <v>       0.00585938 </v>
   <v>       0.00585938 </v>
   <v>       0.00585938 </v>
   <v>       0.00292969 </v>
   <v>       0.00585938 </v>
   <v>       0.00292969 </v>
   <v>       0.00292969 </v>
   <v>       0.00048828 </v>
   <v>       0.00292969 </v>
   <v>       0.00292969 </v>
   <v>       0.00292969 </v>
   <v>       0.00292969 </v>
   <v>       0.00292969 </v>
   <v>       0.00292969 </v>
   <v>       0.00292969 </v>
   <v>       0.00146484 </v>
   <v>       0.00292969 </v>
   <v>       0.00585938 </v>
   <v>       0.00585938 </v>
   <v>       0.00585938 </v>
   <v>       0.00585938 </v>
   <v>       0.00585938 </v>
   <v>       0.00585938 </v>
   <v>       0.00292969 </v>
   <v>       0.00585938 </v>
   <v>       0.00585938 </v>
   <v>       0.00585938 </v>
   <v>       0.00585938 </v>
   <v>       0.00292969 </v>
   <v>       0.00292969 </v>
   <v>       0.00585938 </v>
   <v>       0.00585938 </v>
   <v>       0.00585938 </v>
   <v>       0.00292969 </v>
   <v>       0.00585938 </v>
   <v>       0.00292969 </v>
   <v>       0.00292969 </v>
   <v>       0.00048828 </v>
   <v>       0.00292969 </v>
   <v>       0.00292969 </v>
   <v>       0.00292969 </v>
   <v>       0.00292969 </v>
   <v>       0.00292969 </v>
   <v>       0.00292969 </v>
   <v>       0.00292969 </v>
   <v>       0.00146484 </v>
   <v>       0.00292969 </v>
   <v>       0.00585938 </v>
   <v>       0.00585938 </v>
   <v>       0.00585938 </v>
   <v>       0.00585938 </v>
   <v>       0.00585938 </v>
   <v>       0.00585938 </v>
   <v>       0.00292969 </v>
   <v>       0.00585938 </v>
   <v>       0.00585938 </v>
   <v>       0.00585938 </v>
   <v>       0.00585938 </v>
   <v>       0.00292969 </v>
   <v>       0.00292969 </v>
   <v>       0.00585938 </v>
   <v>       0.00585938 </v>
   <v>       0.00585938 </v>
   <v>       0.00292969 </v>
   <v>       0.00585938 </v>
   <v>       0.00292969 </v>
   <v>       0.00292969 </v>
   <v>       0.00024414 </v>
   <v>       0.00146484 </v>
   <v>       0.00146484 </v>
   <v>       0.00146484 </v>
   <v>       0.00146484 </v>
   <v>       0.00146484 </v>
   <v>       0.00146484 </v>
   <v>       0.00146484 </v>
   <v>       0.00073242 </v>
   <v>       0.00146484 </v>
   <v>       0.00292969 </v>
   <v>       0.00292969 </v>
   <v>       0.00292969 </v>
   <v>       0.00292969 </v>
   <v>       0.00292969 </v>
   <v>       0.00292969 </v>
   <v>       0.00146484 </v>
   <v>       0.00292969 </v>
   <v>       0.00292969 </v>
   <v>       0.00292969 </v>
   <v>       0.00292969 </v>
   <v>       0.00146484 </v>
   <v>       0.00146484 </v>
   <v>       0.00292969 </v>
   <v>       0.00292969 </v>
   <v>       0.00292969 </v>
   <v>       0.00146484 </v>
   <v>       0.00292969 </v>
   <v>       0.00146484 </v>
   <v>       0.00146484 </v>
  </varray>
 </kpoints>
 <parameters>
  <separator name="general" >
   <i type="string" name="SYSTEM">unknown system</i>
   <i type="logical" name="LCOMPAT"> F  </i>
  </separator>
  <separator name="electronic" >
   <i type="string" name="PREC">accura</i>
   <i name="ENMAX">    600.00000000</i>
   <i name="ENAUG">    535.51400000</i>
   <i name="EDIFF">      0.00000100</i>
   <i type="int" name="IALGO">    48</i>
   <i type="int" name="IWAVPR">    11</i>
   <i type="int" name="NBANDS">    12</i>
   <i name="NELECT">     10.00000000</i>
   <i type="int" name="TURBO">     0</i>
   <i type="int" name="IRESTART">     0</i>
   <i type="int" name="NREBOOT">     0</i>
   <i type="int" name="NMIN">     0</i>
   <i name="EREF">      0.00000000</i>
   <separator name="electronic smearing" >
    <i type="int" name="ISMEAR">     0</i>
    <i name="SIGMA">      0.05000000</i>
    <i name="KSPACING">      0.50000000</i>
    <i type="logical" name="KGAMMA"> T  </i>
   </separator>
   <separator name="electronic projectors" >
    <i type="logical" name="LREAL"> F  </i>
    <v name="ROPT">      0.00000000      0.00000000</v>
    <i type="int" name="LMAXPAW">  -100</i>
    <i type="int" name="LMAXMIX">     2</i>
    <i type="logical" name="NLSPLINE"> F  </i>
   </separator>
   <separator name="electronic startup" >
    <i type="int" name="ISTART">     0</i>
    <i type="int" name="ICHARG">     2</i>
    <i type="int" name="INIWAV">     1</i>
   </separator>
   <separator name="electronic spin" >
    <i type="int" name="ISPIN">     1</i>
    <i type="logical" name="LNONCOLLINEAR"> F  </i>
    <v name="MAGMOM">      1.00000000      1.00000000      1.00000000</v>
    <i name="NUPDOWN">     -1.00000000</i>
    <i type="logical" name="LSORBIT"> F  </i>
    <v name="SAXIS">      0.00000000      0.00000000      1.00000000</v>
    <i type="logical" name="LSPIRAL"> F  </i>
    <v name="QSPIRAL">      0.00000000      0.00000000      0.00000000</v>
    <i type="logical" name="LZEROZ"> F  </i>
   </separator>
   <separator name="electronic exchange-correlation" >
    <i type="logical" name="LASPH"> F  </i>
    <i type="logical" name="LMETAGGA"> F  </i>
   </separator>
   <separator name="electronic convergence" >
    <i type="int" name="NELM">    60</i>
    <i type="int" name="NELMDL">   -12</i>
    <i type="int" name="NELMIN">     2</i>
    <i name="ENINI">    600.00000000</i>
    <separator name="electronic convergence detail" >
     <i type="logical" name="LDIAG"> T  </i>
     <i type="logical" name="LSUBROT"> F  </i>
     <i name="WEIMIN">      0.00100000</i>
     <i name="EBREAK">      0.00000002</i>
     <i name="DEPER">      0.30000000</i>
     <i type="int" name="NRMM">     4</i>
     <i name="TIME">      0.40000000</i>
    </separator>
   </separator>
   <separator name="electronic mixer" >
    <i name="AMIX">      0.40000000</i>
    <i name="BMIX">      1.00000000</i>
    <i name="AMIN">      0.10000000</i>
    <i name="AMIX_MAG">      1.60000000</i>
    <i name="BMIX_MAG">      1.00000000</i>
    <separator name="electronic mixer details" >
     <i type="int" name="IMIX">     4</i>
     <i type="logical" name="MIXFIRST"> F  </i>
     <i type="int" name="MAXMIX">   -45</i>
     <i name="WC">    100.00000000</i>
     <i type="int" name="INIMIX">     1</i>
     <i type="int" name="MIXPRE">     1</i>
     <i type="int" name="MREMOVE">     5</i>
    </separator>
   </separator>
   <separator name="electronic dipolcorrection" >
    <i type="logical" name="LDIPOL"> F  </i>
    <i type="logical" name="LMONO"> F  </i>
    <i type="int" name="IDIPOL">     0</i>
    <i name="EPSILON">      1.00000000</i>
    <v name="DIPOL">   -100.00000000   -100.00000000   -100.00000000</v>
    <i name="EFIELD">      0.00000000</i>
   </separator>
  </separator>
  <separator name="grids" >
   <i type="int" name="NGX">    24</i>
   <i type="int" name="NGY">    24</i>
   <i type="int" name="NGZ">    28</i>
   <i type="int" name="NGXF">    48</i>
   <i type="int" name="NGYF">    48</i>
   <i type="int" name="NGZF">    56</i>
   <i type="logical" name="ADDGRID"> F  </i>
  </separator>
  <separator name="ionic" >
   <i type="int" name="NSW">    50</i>
   <i type="int" name="IBRION">     1</i>
   <i type="int" name="MDALGO">     0</i>
   <i type="int" name="ISIF">     3</i>
   <i name="PSTRESS">      0.00100000</i>
   <i name="EDIFFG">     -0.00100000</i>
   <i type="int" name="NFREE">     0</i>
   <i name="POTIM">      0.50000000</i>
   <i name="SMASS">     -3.00000000</i>
   <i name="SCALEE">      1.00000000</i>
  </separator>
  <separator name="ionic md" >
   <i name="TEBEG">      0.00010000</i>
   <i name="TEEND">      0.00010000</i>
   <i type="int" name="NBLOCK">     1</i>
   <i type="int" name="KBLOCK">    50</i>
   <i type="int" name="NPACO">   256</i>
   <i name="APACO">     16.00000000</i>
  </separator>
  <separator name="symmetry" >
   <i type="int" name="ISYM">     2</i>
   <i name="SYMPREC">      0.00001000</i>
  </separator>
  <separator name="dos" >
   <i type="int" name="LORBIT">     0</i>
   <v name="RWIGS">     -1.00000000     -1.00000000</v>
   <i type="int" name="NEDOS">   301</i>
   <i name="EMIN">     10.00000000</i>
   <i name="EMAX">    -10.00000000</i>
   <i name="EFERMI">      0.00000000</i>
  </separator>
  <separator name="writing" >
   <i type="int" name="NWRITE">     2</i>
   <i type="logical" name="LWAVE"> F  </i>
   <i type="logical" name="LDOWNSAMPLE"> F  </i>
   <i type="logical" name="LCHARG"> F  </i>
   <i type="logical" name="LPARD"> F  </i>
   <i type="logical" name="LVTOT"> F  </i>
   <i type="logical" name="LVHAR"> F  </i>
   <i type="logical" name="LELF"> F  </i>
   <i type="logical" name="LOPTICS"> F  </i>
   <v name="STM">      0.00000000      0.00000000      0.00000000      0.00000000      0.00000000      0.00000000      0.00000000</v>
  </separator>
  <separator name="performance" >
   <i type="int" name="NPAR">     4</i>
   <i type="int" name="NSIM">     4</i>
   <i type="int" name="NBLK">    -1</i>
   <i type="logical" name="LPLANE"> T  </i>
   <i type="logical" name="LSCALAPACK"> T  </i>
   <i type="logical" name="LSCAAWARE"> F  </i>
   <i type="logical" name="LSCALU"> F  </i>
   <i type="logical" name="LASYNC"> F  </i>
   <i type="logical" name="LORBITALREAL"> F  </i>
  </separator>
  <separator name="miscellaneous" >
   <i type="int" name="IDIOT">     3</i>
   <i type="int" name="ISPECIAL">     0</i>
   <i type="logical" name="LMUSIC"> F  </i>
   <v name="POMASS">     47.88000000     10.81100000</v>
   <v name="DARWINR">      0.00000000      0.00000000</v>
   <v name="DARWINV">      1.00000000      1.00000000</v>
   <i type="logical" name="LCORR"> T  </i>
  </separator>
  <i type="logical" name="GGA_COMPAT"> T  </i>
  <i type="logical" name="LBERRY"> F  </i>
  <i type="int" name="ICORELEVEL">     0</i>
  <i type="logical" name="LDAU"> F  </i>
  <i type="int" name="I_CONSTRAINED_M">     0</i>
  <separator name="electronic exchange-correlation" >
   <i type="string" name="GGA">--</i>
   <i type="int" name="VOSKOWN">     0</i>
   <i type="logical" name="LHFCALC"> F  </i>
   <i type="string" name="PRECFOCK"></i>
   <i type="logical" name="LSYMGRAD"> F  </i>
   <i type="logical" name="LHFONE"> F  </i>
   <i type="logical" name="LRHFCALC"> F  </i>
   <i type="logical" name="LTHOMAS"> F  </i>
   <i type="logical" name="LMODELHF"> F  </i>
   <i name="ENCUT4O">     -1.00000000</i>
   <i type="int" name="EXXOEP">     0</i>
   <i type="int" name="FOURORBIT">     0</i>
   <i name="AEXX">      0.00000000</i>
   <i name="HFALPHA">      0.00000000</i>
   <i name="MCALPHA">      0.00000000</i>
   <i name="ALDAX">      1.00000000</i>
   <i name="AGGAX">      1.00000000</i>
   <i name="ALDAC">      1.00000000</i>
   <i name="AGGAC">      1.00000000</i>
   <i type="int" name="NKREDX">     1</i>
   <i type="int" name="NKREDY">     1</i>
   <i type="int" name="NKREDZ">     1</i>
   <i type="logical" name="SHIFTRED"> F  </i>
   <i type="logical" name="ODDONLY"> F  </i>
   <i type="logical" name="EVENONLY"> F  </i>
   <i type="int" name="LMAXFOCK">     0</i>
   <i type="int" name="NMAXFOCKAE">     0</i>
   <i type="logical" name="LFOCKAEDFT"> F  </i>
   <i name="HFSCREEN">      0.00000000</i>
   <i name="HFSCREENC">      0.00000000</i>
   <i type="int" name="NBANDSGWLOW">     0</i>
  </separator>
  <separator name="vdW DFT" >
   <i type="logical" name="LUSE_VDW"> F  </i>
   <i name="Zab_VDW">     -0.84910000</i>
   <i name="PARAM1">      0.12340000</i>
   <i name="PARAM2">      1.00000000</i>
   <i name="PARAM3">      0.00000000</i>
  </separator>
  <separator name="model GW" >
   <i type="int" name="MODEL_GW">     0</i>
   <i name="MODEL_EPS0">      5.13978986</i>
   <i name="MODEL_ALPHA">      1.00000000</i>
  </separator>
  <separator name="linear response parameters" >
   <i type="logical" name="LEPSILON"> F  </i>
   <i type="logical" name="LRPA"> F  </i>
   <i type="logical" name="LNABLA"> F  </i>
   <i type="logical" name="LVEL"> F  </i>
   <i type="int" name="KINTER">     0</i>
   <i name="CSHIFT">      0.10000000</i>
   <i name="OMEGAMAX">     -1.00000000</i>
   <i name="DEG_THRESHOLD">      0.00200000</i>
   <i name="RTIME">     -0.10000000</i>
   <i name="WPLASMAI">      0.00000000</i>
   <v name="DFIELD">      0.00000000      0.00000000      0.00000000</v>
   <v name="WPLASMA">      0.00000000      0.00000000      0.00000000      0.00000000      0.00000000      0.00000000      0.00000000      0.00000000      0.00000000</v>
  </separator>
  <separator name="orbital magnetization" >
   <i type="logical" name="NUCIND"> F  </i>
   <v name="MAGPOS">      0.00000000      0.00000000      0.00000000</v>
   <i type="logical" name="LNICSALL"> T  </i>
   <i type="logical" name="ORBITALMAG"> F  </i>
   <i type="logical" name="LMAGBLOCH"> F  </i>
   <i type="logical" name="LCHIMAG"> F  </i>
   <i type="logical" name="LGAUGE"> T  </i>
   <i type="int" name="MAGATOM">     0</i>
   <v name="MAGDIPOL">      0.00000000      0.00000000      0.00000000</v>
   <v name="AVECCONST">      0.00000000      0.00000000      0.00000000</v>
  </separator>
  <separator name="response functions" >
   <i type="logical" name="LADDER"> F  </i>
   <i type="logical" name="LRPAFORCE"> F  </i>
   <i type="logical" name="LFXC"> F  </i>
   <i type="logical" name="LHARTREE"> T  </i>
   <i type="int" name="IBSE">     0</i>
   <v type="int" name="KPOINT">    -1     0     0     0</v>
   <i type="logical" name="LTCTE"> F  </i>
   <i type="logical" name="LTETE"> F  </i>
   <i type="logical" name="LTRIPLET"> F  </i>
   <i type="logical" name="LFXCEPS"> F  </i>
   <i type="logical" name="LFXHEG"> F  </i>
   <i type="int" name="NATURALO">     2</i>
   <i type="logical" name="L2ORDER"> F  </i>
   <i type="logical" name="LMP2LT"> F  </i>
   <i type="logical" name="LUSEW"> F  </i>
   <i name="ENCUTGW">     -2.00000000</i>
   <i name="ENCUTGWSOFT">     -2.00000000</i>
   <i name="ENCUTLF">     -1.00000000</i>
   <i type="int" name="LMAXMP2">    -1</i>
   <i name="SCISSOR">      0.00000000</i>
   <i type="int" name="NOMEGA">     0</i>
   <i type="int" name="NOMEGAR">     0</i>
   <i type="int" name="NBANDSGW">    -1</i>
   <i type="int" name="NBANDSO">    -1</i>
   <i type="int" name="NBANDSV">    -1</i>
   <i type="int" name="NELM">     1</i>
   <i type="int" name="NELMHF">     1</i>
   <i type="int" name="DIM">     3</i>
   <i type="int" name="ANTIRES">     0</i>
   <i name="OMEGAMAX">    -30.00000000</i>
   <i name="OMEGAMIN">    -30.00000000</i>
   <i name="OMEGATL">   -200.00000000</i>
   <i type="int" name="OMEGAGRID">   140</i>
   <i name="CSHIFT">     -0.10000000</i>
   <i type="logical" name="SELFENERGY"> F  </i>
   <i type="logical" name="LSPECTRAL"> F  </i>
   <i type="logical" name="LSPECTRALGW"> F  </i>
   <i type="logical" name="LSINGLES"> F  </i>
   <i type="logical" name="LFERMIGW"> F  </i>
   <i type="logical" name="ODDONLYGW"> F  </i>
   <i type="logical" name="EVENONLYGW"> F  </i>
   <i type="int" name="NKREDLFX">     1</i>
   <i type="int" name="NKREDLFY">     1</i>
   <i type="int" name="NKREDLFZ">     1</i>
   <i type="int" name="MAXMEM">  2800</i>
   <i type="int" name="TELESCOPE">     0</i>
   <i type="int" name="TAUPAR">     1</i>
   <i type="int" name="OMEGAPAR">    -1</i>
   <i name="LAMBDA">      1.00000000</i>
  </separator>
  <separator name="External order field" >
   <i name="OFIELD_KAPPA">      0.00000000</i>
   <v name="OFIELD_K">      0.00000000      0.00000000      0.00000000</v>
   <i name="OFIELD_Q6_NEAR">      0.00000000</i>
   <i name="OFIELD_Q6_FAR">      0.00000000</i>
   <i name="OFIELD_A">      0.00000000</i>
  </separator>
 </parameters>
 <atominfo>
  <atoms>       3 </atoms>
  <types>       2 </types>
  <array name="atoms" >
   <dimension dim="1">ion</dimension>
   <field type="string">element</field>
   <field type="int">atomtype</field>
   <set>
    <rc><c>Ti</c><c>   1</c></rc>
    <rc><c>B </c><c>   2</c></rc>
    <rc><c>B </c><c>   2</c></rc>
   </set>
  </array>
  <array name="atomtypes" >
   <dimension dim="1">type</dimension>
   <field type="int">atomspertype</field>
   <field type="string">element</field>
   <field>mass</field>
   <field>valence</field>
   <field type="string">pseudopotential</field>
   <set>
    <rc><c>   1</c><c>Ti</c><c>     47.88000000</c><c>      4.00000000</c><c>  PAW_PBE Ti 08Apr2002                  </c></rc>
    <rc><c>   2</c><c>B </c><c>     10.81100000</c><c>      3.00000000</c><c>  PAW_PBE B 06Sep2000                   </c></rc>
   </set>
  </array>
 </atominfo>
 <structure name="initialpos" >
  <crystal>
   <varray name="basis" >
    <v>       3.03297039       0.00000000       0.00000000 </v>
    <v>      -1.51648520       2.62662941       0.00000000 </v>
    <v>       0.00000000       0.00000000       3.22588138 </v>
   </varray>
   <i name="volume">     25.69894931 </i>
   <varray name="rec_basis" >
    <v>       0.32970978       0.19035803       0.00000000 </v>
    <v>       0.00000000       0.38071606       0.00000000 </v>
    <v>       0.00000000       0.00000000       0.30999280 </v>
   </varray>
  </crystal>
  <varray name="positions" >
   <v>       0.00000000       0.00000000       0.00000000 </v>
   <v>       0.33333333       0.66666667       0.50000000 </v>
   <v>       0.66666667       0.33333333       0.50000000 </v>
  </varray>
 </structure>
 <calculation>
  <scstep>
   <time name="diag">    0.24    0.24</time>
   <time name="diis">    0.18    0.18</time>
   <time name="orth">    0.02    0.02</time>
   <time name="total">    0.46    0.47</time>
   <energy>
    <i name="alphaZ">     52.13038689 </i>
    <i name="ewald">   -333.77928144 </i>
    <i name="hartreedc">     -9.06351966 </i>
    <i name="XCdc">    -22.02452359 </i>
    <i name="pawpsdc">    212.51551635 </i>
    <i name="pawaedc">   -170.34075235 </i>
    <i name="eentropy">     -0.00130196 </i>
    <i name="bandstr">     81.66436567 </i>
    <i name="atom">    237.13190223 </i>
    <i name="e_fr_energy">     48.23279213 </i>
    <i name="e_wo_entrp">     48.23409409 </i>
    <i name="e_0_energy">     48.23344311 </i>
   </energy>
  </scstep>
  <scstep>
   <time name="diag">    0.24    0.24</time>
   <time name="diis">    0.18    0.18</time>
   <time name="orth">    0.02    0.02</time>
   <time name="total">    0.44    0.44</time>
   <energy>
    <i name="e_fr_energy">    -10.00236347 </i>
    <i name="e_wo_entrp">    -10.00108439 </i>
    <i name="e_0_energy">    -10.00172393 </i>
   </energy>
  </scstep>
  <scstep>
   <time name="diag">    0.23    0.24</time>
   <time name="diis">    0.18    0.18</time>
   <time name="orth">    0.02    0.02</time>
   <time name="total">    0.44    0.44</time>
   <energy>
    <i name="e_fr_energy">    -24.70715932 </i>
    <i name="e_wo_entrp">    -24.70664892 </i>
    <i name="e_0_energy">    -24.70690412 </i>
   </energy>
  </scstep>
  <scstep>
   <time name="diag">    0.24    0.24</time>
   <time name="diis">    0.18    0.18</time>
   <time name="orth">    0.02    0.02</time>
   <time name="total">    0.44    0.44</time>
   <energy>
    <i name="e_fr_energy">    -28.31238126 </i>
    <i name="e_wo_entrp">    -28.31187643 </i>
    <i name="e_0_energy">    -28.31212885 </i>
   </energy>
  </scstep>
  <scstep>
   <time name="diag">    0.23    0.24</time>
   <time name="diis">    0.18    0.18</time>
   <time name="orth">    0.02    0.02</time>
   <time name="total">    0.44    0.44</time>
   <energy>
    <i name="e_fr_energy">    -29.15169036 </i>
    <i name="e_wo_entrp">    -29.15121485 </i>
    <i name="e_0_energy">    -29.15145261 </i>
   </energy>
  </scstep>
  <scstep>
   <time name="diag">    0.23    0.24</time>
   <time name="diis">    0.18    0.18</time>
   <time name="orth">    0.02    0.02</time>
   <time name="total">    0.44    0.44</time>
   <energy>
    <i name="e_fr_energy">    -29.32913478 </i>
    <i name="e_wo_entrp">    -29.32847524 </i>
    <i name="e_0_energy">    -29.32880501 </i>
   </energy>
  </scstep>
  <scstep>
   <time name="diag">    0.24    0.24</time>
   <time name="diis">    0.18    0.18</time>
   <time name="orth">    0.02    0.02</time>
   <time name="total">    0.44    0.44</time>
   <energy>
    <i name="e_fr_energy">    -29.37670790 </i>
    <i name="e_wo_entrp">    -29.37622092 </i>
    <i name="e_0_energy">    -29.37646441 </i>
   </energy>
  </scstep>
  <scstep>
   <time name="diag">    0.23    0.24</time>
   <time name="diis">    0.18    0.18</time>
   <time name="orth">    0.02    0.02</time>
   <time name="total">    0.44    0.44</time>
   <energy>
    <i name="e_fr_energy">    -29.39009059 </i>
    <i name="e_wo_entrp">    -29.38966851 </i>
    <i name="e_0_energy">    -29.38987955 </i>
   </energy>
  </scstep>
  <scstep>
   <time name="diag">    0.23    0.24</time>
   <time name="diis">    0.36    0.36</time>
   <time name="orth">    0.02    0.02</time>
   <time name="total">    0.62    0.62</time>
   <energy>
    <i name="e_fr_energy">    -29.39561947 </i>
    <i name="e_wo_entrp">    -29.39521869 </i>
    <i name="e_0_energy">    -29.39541908 </i>
   </energy>
  </scstep>
  <scstep>
   <time name="diag">    0.23    0.23</time>
   <time name="diis">    0.35    0.36</time>
   <time name="orth">    0.02    0.02</time>
   <time name="total">    0.61    0.61</time>
   <energy>
    <i name="e_fr_energy">    -29.39590277 </i>
    <i name="e_wo_entrp">    -29.39550269 </i>
    <i name="e_0_energy">    -29.39570273 </i>
   </energy>
  </scstep>
  <scstep>
   <time name="diag">    0.23    0.24</time>
   <time name="diis">    0.33    0.33</time>
   <time name="orth">    0.02    0.02</time>
   <time name="total">    0.59    0.59</time>
   <energy>
    <i name="e_fr_energy">    -29.39590911 </i>
    <i name="e_wo_entrp">    -29.39550905 </i>
    <i name="e_0_energy">    -29.39570908 </i>
   </energy>
  </scstep>
  <scstep>
   <time name="diag">    0.24    0.24</time>
   <time name="diis">    0.29    0.29</time>
   <time name="orth">    0.02    0.02</time>
   <time name="total">    0.58    0.58</time>
   <energy>
    <i name="e_fr_energy">    -29.39590950 </i>
    <i name="e_wo_entrp">    -29.39550945 </i>
    <i name="e_0_energy">    -29.39570947 </i>
   </energy>
  </scstep>
  <scstep>
   <time name="diag">    0.24    0.24</time>
   <time name="diis">    0.32    0.32</time>
   <time name="orth">    0.02    0.02</time>
   <time name="total">    0.62    0.62</time>
   <energy>
    <i name="e_fr_energy">    -24.40519396 </i>
    <i name="e_wo_entrp">    -24.40477509 </i>
    <i name="e_0_energy">    -24.40498453 </i>
   </energy>
  </scstep>
  <scstep>
   <time name="diag">    0.23    0.23</time>
   <time name="diis">    0.32    0.32</time>
   <time name="orth">    0.02    0.02</time>
   <time name="total">    0.62    0.62</time>
   <energy>
    <i name="e_fr_energy">    -24.33803835 </i>
    <i name="e_wo_entrp">    -24.33760356 </i>
    <i name="e_0_energy">    -24.33782096 </i>
   </energy>
  </scstep>
  <scstep>
   <time name="diag">    0.23    0.24</time>
   <time name="diis">    0.32    0.32</time>
   <time name="orth">    0.02    0.02</time>
   <time name="total">    0.62    0.62</time>
   <energy>
    <i name="e_fr_energy">    -24.30803474 </i>
    <i name="e_wo_entrp">    -24.30763729 </i>
    <i name="e_0_energy">    -24.30783601 </i>
   </energy>
  </scstep>
  <scstep>
   <time name="diag">    0.23    0.24</time>
   <time name="diis">    0.32    0.32</time>
   <time name="orth">    0.02    0.02</time>
   <time name="total">    0.62    0.62</time>
   <energy>
    <i name="e_fr_energy">    -24.30759118 </i>
    <i name="e_wo_entrp">    -24.30719024 </i>
    <i name="e_0_energy">    -24.30739071 </i>
   </energy>
  </scstep>
  <scstep>
   <time name="diag">    0.23    0.24</time>
   <time name="diis">    0.32    0.32</time>
   <time name="orth">    0.02    0.02</time>
   <time name="total">    0.62    0.62</time>
   <energy>
    <i name="e_fr_energy">    -24.30756768 </i>
    <i name="e_wo_entrp">    -24.30716206 </i>
    <i name="e_0_energy">    -24.30736487 </i>
   </energy>
  </scstep>
  <scstep>
   <time name="diag">    0.23    0.23</time>
   <time name="diis">    0.32    0.32</time>
   <time name="orth">    0.02    0.02</time>
   <time name="total">    0.62    0.62</time>
   <energy>
    <i name="e_fr_energy">    -24.30752688 </i>
    <i name="e_wo_entrp">    -24.30712110 </i>
    <i name="e_0_energy">    -24.30732399 </i>
   </energy>
  </scstep>
  <scstep>
   <time name="diag">    0.23    0.24</time>
   <time name="diis">    0.28    0.28</time>
   <time name="orth">    0.02    0.02</time>
   <time name="total">    0.54    0.55</time>
   <energy>
    <i name="alphaZ">     52.13038689 </i>
    <i name="ewald">   -333.77928144 </i>
    <i name="hartreedc">    -10.82517221 </i>
    <i name="XCdc">    -21.01708666 </i>
    <i name="pawpsdc">    969.18153179 </i>
    <i name="pawaedc">   -927.28301374 </i>
    <i name="eentropy">     -0.00040548 </i>
    <i name="bandstr">     10.15361197 </i>
    <i name="atom">    237.13190223 </i>
    <i name="e_fr_energy">    -24.30752665 </i>
    <i name="e_wo_entrp">    -24.30712117 </i>
    <i name="e_0_energy">    -24.30732391 </i>
   </energy>
  </scstep>
  <structure>
   <crystal>
    <varray name="basis" >
     <v>       3.03297039       0.00000000       0.00000000 </v>
     <v>      -1.51648520       2.62662941       0.00000000 </v>
     <v>       0.00000000       0.00000000       3.22588138 </v>
    </varray>
    <i name="volume">     25.69894931 </i>
    <varray name="rec_basis" >
     <v>       0.32970978       0.19035803       0.00000000 </v>
     <v>       0.00000000       0.38071606       0.00000000 </v>
     <v>       0.00000000       0.00000000       0.30999280 </v>
    </varray>
   </crystal>
   <varray name="positions" >
    <v>       0.00000000       0.00000000       0.00000000 </v>
    <v>       0.33333333       0.66666667       0.50000000 </v>
    <v>       0.66666667       0.33333333       0.50000000 </v>
   </varray>
  </structure>
  <varray name="forces" >
   <v>      -0.00000000       0.00000000       0.00000000 </v>
   <v>      -0.00000000       0.00000000       0.00000000 </v>
   <v>       0.00000000       0.00000000       0.00000000 </v>
  </varray>
  <varray name="stress" >
   <v>       0.05267953       0.00000000       0.00000000 </v>
   <v>       0.00000000       0.05267953       0.00000000 </v>
   <v>      -0.00000000      -0.00000000      -0.24450647 </v>
  </varray>
  <energy>
   <i name="e_fr_energy">    -24.30751061 </i>
   <i name="e_wo_entrp">    -24.30730787 </i>
   <i name="e_0_energy">     -0.00040548 </i>
  </energy>
  <time name="totalsc">   10.62   10.63</time>
 </calculation>
 <calculation>
  <scstep>
   <time name="diag">    0.23    0.23</time>
   <time name="diis">    0.33    0.33</time>
   <time name="orth">    0.02    0.02</time>
   <time name="total">    0.62    0.62</time>
   <energy>
    <i name="alphaZ">     52.13229840 </i>
    <i name="ewald">   -333.78506353 </i>
    <i name="hartreedc">    -10.82399831 </i>
    <i name="XCdc">    -21.01703452 </i>
    <i name="pawpsdc">    969.09500779 </i>
    <i name="pawaedc">   -927.19612343 </i>
    <i name="eentropy">     -0.00040582 </i>
    <i name="bandstr">     10.15589111 </i>
    <i name="atom">    237.13190223 </i>
    <i name="e_fr_energy">    -24.30752609 </i>
    <i name="e_wo_entrp">    -24.30712027 </i>
    <i name="e_0_energy">    -24.30732318 </i>
   </energy>
  </scstep>
  <scstep>
   <time name="diag">    0.23    0.23</time>
   <time name="diis">    0.23    0.23</time>
   <time name="orth">    0.02    0.02</time>
   <time name="total">    0.49    0.50</time>
   <energy>
    <i name="alphaZ">     52.13229840 </i>
    <i name="ewald">   -333.78506353 </i>
    <i name="hartreedc">    -10.82306084 </i>
    <i name="XCdc">    -21.01717611 </i>
    <i name="pawpsdc">    969.11846235 </i>
    <i name="pawaedc">   -927.21973184 </i>
    <i name="eentropy">     -0.00040580 </i>
    <i name="bandstr">     10.15524911 </i>
    <i name="atom">    237.13190223 </i>
    <i name="e_fr_energy">    -24.30752604 </i>
    <i name="e_wo_entrp">    -24.30712024 </i>
    <i name="e_0_energy">    -24.30732314 </i>
   </energy>
  </scstep>
  <structure>
   <crystal>
    <varray name="basis" >
     <v>       3.03301082       0.00000000       0.00000000 </v>
     <v>      -1.51650541       2.62666442      -0.00000000 </v>
     <v>      -0.00000000      -0.00000000       3.22567710 </v>
    </varray>
    <i name="volume">     25.69800701 </i>
    <varray name="rec_basis" >
     <v>       0.32970538       0.19035549       0.00000000 </v>
     <v>      -0.00000000       0.38071099       0.00000000 </v>
     <v>      -0.00000000       0.00000000       0.31001243 </v>
    </varray>
   </crystal>
   <varray name="positions" >
    <v>      -0.00000000       0.00000000       0.00000000 </v>
    <v>       0.33333333       0.66666667       0.50000000 </v>
    <v>       0.66666667       0.33333333       0.50000000 </v>
   </varray>
  </structure>
  <varray name="forces" >
   <v>       0.00000000      -0.00000000      -0.00000000 </v>
   <v>      -0.00000000       0.00000000      -0.00000000 </v>
   <v>       0.00000000      -0.00000000       0.00000000 </v>
  </varray>
  <varray name="stress" >
   <v>      -0.20042841      -0.00000000       0.00000000 </v>
   <v>       0.00000000      -0.20042841      -0.00000000 </v>
   <v>       0.00000000       0.00000000       0.03209292 </v>
  </varray>
  <energy>
   <i name="e_fr_energy">    -24.30751000 </i>
   <i name="e_wo_entrp">    -24.30730710 </i>
   <i name="e_0_energy">     -0.00040580 </i>
  </energy>
  <time name="totalsc">    1.55    1.56</time>
 </calculation>
 <calculation>
  <scstep>
   <time name="diag">    0.23    0.24</time>
   <time name="diis">    0.25    0.25</time>
   <time name="orth">    0.02    0.02</time>
   <time name="total">    0.54    0.54</time>
   <energy>
    <i name="alphaZ">     52.13469652 </i>
    <i name="ewald">   -333.78954260 </i>
    <i name="hartreedc">    -10.82332484 </i>
    <i name="XCdc">    -21.01685865 </i>
    <i name="pawpsdc">    969.13894772 </i>
    <i name="pawaedc">   -927.24015464 </i>
    <i name="eentropy">     -0.00040567 </i>
    <i name="bandstr">     10.15721384 </i>
    <i name="atom">    237.13190223 </i>
    <i name="e_fr_energy">    -24.30752609 </i>
    <i name="e_wo_entrp">    -24.30712042 </i>
    <i name="e_0_energy">    -24.30732325 </i>
   </energy>
  </scstep>
  <scstep>
   <time name="diag">    0.23    0.23</time>
   <time name="diis">    0.24    0.24</time>
   <time name="orth">    0.02    0.02</time>
   <time name="total">    0.50    0.50</time>
   <energy>
    <i name="alphaZ">     52.13469652 </i>
    <i name="ewald">   -333.78954260 </i>
    <i name="hartreedc">    -10.82328934 </i>
    <i name="XCdc">    -21.01680142 </i>
    <i name="pawpsdc">    969.19894923 </i>
    <i name="pawaedc">   -927.30013509 </i>
    <i name="eentropy">     -0.00040567 </i>
    <i name="bandstr">     10.15710000 </i>
    <i name="atom">    237.13190223 </i>
    <i name="e_fr_energy">    -24.30752615 </i>
    <i name="e_wo_entrp">    -24.30712048 </i>
    <i name="e_0_energy">    -24.30732331 </i>
   </energy>
  </scstep>
  <structure>
   <crystal>
    <varray name="basis" >
     <v>       3.03293523      -0.00000000       0.00000000 </v>
     <v>      -1.51646762       2.62659896      -0.00000000 </v>
     <v>      -0.00000000      -0.00000000       3.22568951 </v>
    </varray>
    <i name="volume">     25.69682495 </i>
    <varray name="rec_basis" >
     <v>       0.32971360       0.19036024       0.00000000 </v>
     <v>       0.00000000       0.38072047       0.00000000 </v>
     <v>      -0.00000000       0.00000000       0.31001124 </v>
    </varray>
   </crystal>
   <varray name="positions" >
    <v>      -0.00000000      -0.00000000      -0.00000000 </v>
    <v>       0.33333333       0.66666667       0.50000000 </v>
    <v>       0.66666667       0.33333333       0.50000000 </v>
   </varray>
  </structure>
  <varray name="forces" >
   <v>      -0.00000000       0.00000000      -0.00000000 </v>
   <v>       0.00000000       0.00000000       0.00000000 </v>
   <v>      -0.00000000      -0.00000000      -0.00000000 </v>
  </varray>
  <varray name="stress" >
   <v>       0.09380658       0.00000000       0.00000000 </v>
   <v>       0.00000000       0.09380658       0.00000000 </v>
   <v>      -0.00000000       0.00000000       0.12438370 </v>
  </varray>
  <energy>
   <i name="e_fr_energy">    -24.30751011 </i>
   <i name="e_wo_entrp">    -24.30730727 </i>
   <i name="e_0_energy">     -0.00040567 </i>
  </energy>
  <time name="totalsc">    1.41    1.42</time>
  <eigenvalues>
   <array>
    <dimension dim="1">band</dimension>
    <dimension dim="2">kpoint</dimension>
    <dimension dim="3">spin</dimension>
    <field>eigene</field>
    <field>occ</field>
    <set>
     <set comment="spin 1">
      <set comment="kpoint 1">
       <r>   -7.1064    1.0000 </r>
       <r>    3.7744    1.0000 </r>
       <r>    3.7744    1.0000 </r>
       <r>    4.1177    1.0000 </r>
       <r>    4.2674    1.0000 </r>
       <r>    8.1839    0.0000 </r>
       <r>    8.1839    0.0000 </r>
       <r>    9.9856    0.0000 </r>
       <r>    9.9856    0.0000 </r>
       <r>   12.1157    0.0000 </r>
       <r>   12.1157    0.0000 </r>
       <r>   13.4431    0.0000 </r>
      </set>
      <set comment="kpoint 2">
       <r>   -7.0331    1.0000 </r>
       <r>    3.5574    1.0000 </r>
       <r>    3.7629    1.0000 </r>
       <r>    4.0525    1.0000 </r>
       <r>    4.3049    1.0000 </r>
       <r>    8.1620    0.0000 </r>
       <r>    8.3168    0.0000 </r>
       <r>    9.6720    0.0000 </r>
       <r>    9.7179    0.0000 </r>
       <r>   12.4322    0.0000 </r>
       <r>   12.5865    0.0000 </r>
       <r>   13.6727    0.0000 </r>
      </set>
      <set comment="kpoint 3">
       <r>   -6.8150    1.0000 </r>
       <r>    2.9612    1.0000 </r>
       <r>    3.7229    1.0000 </r>
       <r>    3.8886    1.0000 </r>
       <r>    4.4063    1.0000 </r>
       <r>    8.1004    0.0000 </r>
       <r>    8.6713    0.0000 </r>
       <r>    9.0999    0.0000 </r>
       <r>    9.2785    0.0000 </r>
       <r>   12.9547    0.0000 </r>
       <r>   13.6468    0.0000 </r>
       <r>   14.7381    0.0000 </r>
      </set>
      <set comment="kpoint 4">
       <r>   -6.4573    1.0000 </r>
       <r>    2.1149    1.0000 </r>
       <r>    3.6447    1.0000 </r>
       <r>    3.6879    1.0000 </r>
       <r>    4.5122    1.0000 </r>
       <r>    8.0098    0.0000 </r>
       <r>    8.6353    0.0000 </r>
       <r>    8.9597    0.0000 </r>
       <r>    9.1420    0.0000 </r>
       <r>   13.3442    0.0000 </r>
       <r>   14.4446    0.0000 </r>
       <r>   15.2153    0.0000 </r>
      </set>
      <set comment="kpoint 5">
       <r>   -5.9681    1.0000 </r>
       <r>    1.1356    1.0000 </r>
       <r>    3.5001    1.0000 </r>
       <r>    3.5287    1.0000 </r>
       <r>    4.5368    1.0000 </r>
       <r>    7.9054    0.0000 </r>
       <r>    8.4516    0.0000 </r>
       <r>    8.8174    0.0000 </r>
       <r>    9.5932    0.0000 </r>
       <r>   13.5996    0.0000 </r>
       <r>   13.8054    0.0000 </r>
       <r>   15.7352    0.0000 </r>
      </set>
      <set comment="kpoint 6">
       <r>   -5.3577    1.0000 </r>
       <r>    0.1010    1.0000 </r>
       <r>    3.3513    1.0000 </r>
       <r>    3.3931    1.0000 </r>
       <r>    4.4437    1.0000 </r>
       <r>    7.8034    0.0000 </r>
       <r>    8.5934    0.0000 </r>
       <r>    8.8216    0.0000 </r>
       <r>    9.8754    0.0000 </r>
       <r>   13.4751    0.0000 </r>
       <r>   13.7441    0.0000 </r>
       <r>   15.1371    0.0000 </r>
      </set>
      <set comment="kpoint 7">
       <r>   -4.6379    1.0000 </r>
       <r>   -0.9399    1.0000 </r>
       <r>    3.2495    1.0000 </r>
       <r>    3.2677    1.0000 </r>
       <r>    4.2895    1.0000 </r>
       <r>    7.7187    0.0000 </r>
       <r>    8.9054    0.0000 </r>
       <r>    8.9550    0.0000 </r>
       <r>    9.9257    0.0000 </r>
       <r>   13.4844    0.0000 </r>
       <r>   13.7871    0.0000 </r>
       <r>   14.8532    0.0000 </r>
      </set>
      <set comment="kpoint 8">
       <r>   -3.8218    1.0000 </r>
       <r>   -1.9547    1.0000 </r>
       <r>    3.1802    1.0000 </r>
       <r>    3.1923    1.0000 </r>
       <r>    4.1600    1.0000 </r>
       <r>    7.6631    0.0000 </r>
       <r>    8.9943    0.0000 </r>
       <r>    9.3337    0.0000 </r>
       <r>    9.8567    0.0000 </r>
       <r>   13.6528    0.0000 </r>
       <r>   13.7368    0.0000 </r>
       <r>   14.6199    0.0000 </r>
      </set>
      <set comment="kpoint 9">
       <r>   -2.9614    1.0000 </r>
       <r>   -2.8822    1.0000 </r>
       <r>    3.1489    1.0000 </r>
       <r>    3.1741    1.0000 </r>
       <r>    4.1109    1.0000 </r>
       <r>    7.6437    0.0000 </r>
       <r>    9.0311    0.0000 </r>
       <r>    9.4994    0.0000 </r>
       <r>    9.8154    0.0000 </r>
       <r>   13.6864    0.0000 </r>
       <r>   13.7426    0.0000 </r>
       <r>   14.5387    0.0000 </r>
      </set>
      <set comment="kpoint 10">
       <r>   -6.8874    1.0000 </r>
       <r>    3.1758    1.0000 </r>
       <r>    3.6924    1.0000 </r>
       <r>    3.9392    1.0000 </r>
       <r>    4.3947    1.0000 </r>
       <r>    8.1090    0.0000 </r>
       <r>    8.5711    0.0000 </r>
       <r>    9.2735    0.0000 </r>
       <r>    9.3677    0.0000 </r>
       <r>   12.9234    0.0000 </r>
       <r>   13.1902    0.0000 </r>
       <r>   14.1897    0.0000 </r>
      </set>
      <set comment="kpoint 11">
       <r>   -6.5995    1.0000 </r>
       <r>    2.4963    1.0000 </r>
       <r>    3.5293    1.0000 </r>
       <r>    3.7629    1.0000 </r>
       <r>    4.5662    1.0000 </r>
       <r>    8.0009    0.0000 </r>
       <r>    8.7677    0.0000 </r>
       <r>    9.0140    0.0000 </r>
       <r>    9.0519    0.0000 </r>
       <r>   13.4174    0.0000 </r>
       <r>   14.1335    0.0000 </r>
       <r>   15.0438    0.0000 </r>
      </set>
      <set comment="kpoint 12">
       <r>   -6.1759    1.0000 </r>
       <r>    1.6169    1.0000 </r>
       <r>    3.3129    1.0000 </r>
       <r>    3.5804    1.0000 </r>
       <r>    4.7365    1.0000 </r>
       <r>    7.8537    0.0000 </r>
       <r>    8.3906    0.0000 </r>
       <r>    8.9177    0.0000 </r>
       <r>    9.5280    0.0000 </r>
       <r>   13.7118    0.0000 </r>
       <r>   14.0181    0.0000 </r>
       <r>   15.2941    0.0000 </r>
      </set>
      <set comment="kpoint 13">
       <r>   -5.6259    1.0000 </r>
       <r>    0.6318    1.0000 </r>
       <r>    3.0752    1.0000 </r>
       <r>    3.4280    1.0000 </r>
       <r>    4.8179    1.0000 </r>
       <r>    7.6860    0.0000 </r>
       <r>    8.2778    0.0000 </r>
       <r>    8.9564    0.0000 </r>
       <r>    9.9718    0.0000 </r>
       <r>   13.5434    0.0000 </r>
       <r>   13.8823    0.0000 </r>
       <r>   15.7934    0.0000 </r>
      </set>
      <set comment="kpoint 14">
       <r>   -4.9605    1.0000 </r>
       <r>   -0.3934    1.0000 </r>
       <r>    2.8546    1.0000 </r>
       <r>    3.3200    1.0000 </r>
       <r>    4.7853    1.0000 </r>
       <r>    7.5207    0.0000 </r>
       <r>    8.4321    0.0000 </r>
       <r>    9.1066    0.0000 </r>
       <r>   10.2106    0.0000 </r>
       <r>   13.3993    0.0000 </r>
       <r>   13.9434    0.0000 </r>
       <r>   15.0825    0.0000 </r>
      </set>
      <set comment="kpoint 15">
       <r>   -4.1923    1.0000 </r>
       <r>   -1.4148    1.0000 </r>
       <r>    2.6868    1.0000 </r>
       <r>    3.2558    1.0000 </r>
       <r>    4.7000    1.0000 </r>
       <r>    7.3854    0.0000 </r>
       <r>    8.7092    0.0000 </r>
       <r>    9.2914    0.0000 </r>
       <r>   10.2450    0.0000 </r>
       <r>   13.5311    0.0000 </r>
       <r>   13.9143    0.0000 </r>
       <r>   14.8709    0.0000 </r>
      </set>
      <set comment="kpoint 16">
       <r>   -3.3352    1.0000 </r>
       <r>   -2.4021    1.0000 </r>
       <r>    2.5966    1.0000 </r>
       <r>    3.2273    1.0000 </r>
       <r>    4.6373    1.0000 </r>
       <r>    7.3083    0.0000 </r>
       <r>    8.9101    0.0000 </r>
       <r>    9.4272    0.0000 </r>
       <r>   10.2121    0.0000 </r>
       <r>   13.6956    0.0000 </r>
       <r>   13.8455    0.0000 </r>
       <r>   14.7474    0.0000 </r>
      </set>
      <set comment="kpoint 17">
       <r>   -6.2456    1.0000 </r>
       <r>    1.8669    1.0000 </r>
       <r>    3.0985    1.0000 </r>
       <r>    3.6157    1.0000 </r>
       <r>    4.8638    1.0000 </r>
       <r>    7.7916    0.0000 </r>
       <r>    8.3587    0.0000 </r>
       <r>    8.9701    0.0000 </r>
       <r>    9.5452    0.0000 </r>
       <r>   14.0942    0.0000 </r>
       <r>   14.1021    0.0000 </r>
       <r>   14.5440    0.0000 </r>
      </set>
      <set comment="kpoint 18">
       <r>   -5.7610    1.0000 </r>
       <r>    1.0768    1.0000 </r>
       <r>    2.6260    1.0000 </r>
       <r>    3.4912    1.0000 </r>
       <r>    5.1746    1.0000 </r>
       <r>    7.5095    0.0000 </r>
       <r>    8.0350    0.0000 </r>
       <r>    9.0608    0.0000 </r>
       <r>   10.1402    0.0000 </r>
       <r>   13.5841    0.0000 </r>
       <r>   14.3555    0.0000 </r>
       <r>   15.4293    0.0000 </r>
      </set>
      <set comment="kpoint 19">
       <r>   -5.1557    1.0000 </r>
       <r>    0.1619    1.0000 </r>
       <r>    2.2233    1.0000 </r>
       <r>    3.4115    1.0000 </r>
       <r>    5.3867    1.0000 </r>
       <r>    7.1968    0.0000 </r>
       <r>    7.9522    0.0000 </r>
       <r>    9.2259    0.0000 </r>
       <r>   10.6487    0.0000 </r>
       <r>   13.2952    0.0000 </r>
       <r>   14.3750    0.0000 </r>
       <r>   15.3836    0.0000 </r>
      </set>
      <set comment="kpoint 20">
       <r>   -4.4415    1.0000 </r>
       <r>   -0.8139    1.0000 </r>
       <r>    1.9265    1.0000 </r>
       <r>    3.3768    1.0000 </r>
       <r>    5.4468    1.0000 </r>
       <r>    6.9064    0.0000 </r>
       <r>    8.1518    0.0000 </r>
       <r>    9.3519    0.0000 </r>
       <r>   10.9284    0.0000 </r>
       <r>   13.3266    0.0000 </r>
       <r>   14.3211    0.0000 </r>
       <r>   15.3480    0.0000 </r>
      </set>
      <set comment="kpoint 21">
       <r>   -3.6321    1.0000 </r>
       <r>   -1.7951    1.0000 </r>
       <r>    1.7458    1.0000 </r>
       <r>    3.3710    1.0000 </r>
       <r>    5.4230    1.0000 </r>
       <r>    6.6974    0.0000 </r>
       <r>    8.4943    0.0000 </r>
       <r>    9.3534    0.0000 </r>
       <r>   11.0022    0.0000 </r>
       <r>   13.5429    0.0000 </r>
       <r>   14.2566    0.0000 </r>
       <r>   15.3044    0.0000 </r>
      </set>
      <set comment="kpoint 22">
       <r>   -2.7519    1.0000 </r>
       <r>   -2.7347    1.0000 </r>
       <r>    1.6851    1.0000 </r>
       <r>    3.3725    1.0000 </r>
       <r>    5.4044    1.0000 </r>
       <r>    6.6209    0.0000 </r>
       <r>    8.6971    0.0000 </r>
       <r>    9.2928    0.0000 </r>
       <r>   11.0072    0.0000 </r>
       <r>   13.6601    0.0000 </r>
       <r>   14.2303    0.0000 </r>
       <r>   15.2850    0.0000 </r>
      </set>
      <set comment="kpoint 23">
       <r>   -5.2210    1.0000 </r>
       <r>    0.4708    1.0000 </r>
       <r>    1.8812    1.0000 </r>
       <r>    3.4541    1.0000 </r>
       <r>    5.6538    1.0000 </r>
       <r>    7.0596    0.0000 </r>
       <r>    7.7286    0.0000 </r>
       <r>    9.2673    0.0000 </r>
       <r>   10.8433    0.0000 </r>
       <r>   13.2417    0.0000 </r>
       <r>   14.7233    0.0000 </r>
       <r>   15.9046    0.0000 </r>
      </set>
      <set comment="kpoint 24">
       <r>   -4.5667    1.0000 </r>
       <r>   -0.2722    1.0000 </r>
       <r>    1.2898    1.0000 </r>
       <r>    3.4785    1.0000 </r>
       <r>    6.0311    1.0000 </r>
       <r>    6.5891    0.0000 </r>
       <r>    7.6440    0.0000 </r>
       <r>    9.3915    0.0000 </r>
       <r>   11.4651    0.0000 </r>
       <r>   13.1025    0.0000 </r>
       <r>   14.7346    0.0000 </r>
       <r>   16.4091    0.0000 </r>
      </set>
      <set comment="kpoint 25">
       <r>   -3.8116    1.0000 </r>
       <r>   -1.1474    1.0000 </r>
       <r>    0.9285    1.0000 </r>
       <r>    3.5460    1.0000 </r>
       <r>    6.1762    1.0000 </r>
       <r>    6.1856    1.0000 </r>
       <r>    7.8982    0.0000 </r>
       <r>    9.3295    0.0000 </r>
       <r>   11.7988    0.0000 </r>
       <r>   13.2651    0.0000 </r>
       <r>   14.7480    0.0000 </r>
       <r>   16.0728    0.0000 </r>
      </set>
      <set comment="kpoint 26">
       <r>   -2.9748    1.0000 </r>
       <r>   -2.0663    1.0000 </r>
       <r>    0.7624    1.0000 </r>
       <r>    3.6076    1.0000 </r>
       <r>    5.9446    1.0000 </r>
       <r>    6.1833    1.0000 </r>
       <r>    8.2965    0.0000 </r>
       <r>    9.1043    0.0000 </r>
       <r>   11.8797    0.0000 </r>
       <r>   13.5206    0.0000 </r>
       <r>   14.7877    0.0000 </r>
       <r>   16.0970    0.0000 </r>
      </set>
      <set comment="kpoint 27">
       <r>   -3.8716    1.0000 </r>
       <r>   -0.7423    1.0000 </r>
       <r>    0.4641    1.0000 </r>
       <r>    3.6327    1.0000 </r>
       <r>    5.9804    1.0000 </r>
       <r>    6.6462    0.0000 </r>
       <r>    7.4695    0.0000 </r>
       <r>    9.3243    0.0000 </r>
       <r>   12.2491    0.0000 </r>
       <r>   13.0125    0.0000 </r>
       <r>   14.9954    0.0000 </r>
       <r>   16.8749    0.0000 </r>
      </set>
      <set comment="kpoint 28">
       <r>   -3.0906    1.0000 </r>
       <r>   -1.4035    1.0000 </r>
       <r>   -0.0308    1.0000 </r>
       <r>    3.8368    1.0000 </r>
       <r>    5.4788    1.0000 </r>
       <r>    6.9247    0.0000 </r>
       <r>    7.7105    0.0000 </r>
       <r>    9.0121    0.0000 </r>
       <r>   12.6379    0.0000 </r>
       <r>   13.2213    0.0000 </r>
       <r>   15.2886    0.0000 </r>
       <r>   16.8062    0.0000 </r>
      </set>
      <set comment="kpoint 29">
       <r>   -2.3575    1.0000 </r>
       <r>   -2.1227    1.0000 </r>
       <r>   -0.1720    1.0000 </r>
       <r>    3.9531    1.0000 </r>
       <r>    5.2596    1.0000 </r>
       <r>    6.9341    0.0000 </r>
       <r>    8.0727    0.0000 </r>
       <r>    8.7038    0.0000 </r>
       <r>   12.6719    0.0000 </r>
       <r>   13.4394    0.0000 </r>
       <r>   15.4443    0.0000 </r>
       <r>   16.7649    0.0000 </r>
      </set>
      <set comment="kpoint 30">
       <r>   -2.3327    1.0000 </r>
       <r>   -1.6899    1.0000 </r>
       <r>   -0.7562    1.0000 </r>
       <r>    4.2321    1.0000 </r>
       <r>    4.8632    1.0000 </r>
       <r>    7.6016    0.0000 </r>
       <r>    7.6305    0.0000 </r>
       <r>    8.5093    0.0000 </r>
       <r>   13.1678    0.0000 </r>
       <r>   13.2364    0.0000 </r>
       <r>   15.9068    0.0000 </r>
       <r>   16.6374    0.0000 </r>
      </set>
      <set comment="kpoint 31">
       <r>   -7.0573    1.0000 </r>
       <r>    3.3995    1.0000 </r>
       <r>    3.8161    1.0000 </r>
       <r>    3.8161    1.0000 </r>
       <r>    4.9270    1.0000 </r>
       <r>    8.0512    0.0000 </r>
       <r>    8.0512    0.0000 </r>
       <r>    9.8971    0.0000 </r>
       <r>    9.8971    0.0000 </r>
       <r>   12.3131    0.0000 </r>
       <r>   12.3131    0.0000 </r>
       <r>   13.4287    0.0000 </r>
      </set>
      <set comment="kpoint 32">
       <r>   -6.9845    1.0000 </r>
       <r>    3.4026    1.0000 </r>
       <r>    3.5956    1.0000 </r>
       <r>    3.8001    1.0000 </r>
       <r>    4.8875    1.0000 </r>
       <r>    8.0180    0.0000 </r>
       <r>    8.1730    0.0000 </r>
       <r>    9.6574    0.0000 </r>
       <r>    9.7034    0.0000 </r>
       <r>   12.5683    0.0000 </r>
       <r>   12.7261    0.0000 </r>
       <r>   13.6474    0.0000 </r>
      </set>
      <set comment="kpoint 33">
       <r>   -6.7681    1.0000 </r>
       <r>    2.9896    1.0000 </r>
       <r>    3.3988    1.0000 </r>
       <r>    3.7465    1.0000 </r>
       <r>    4.8161    1.0000 </r>
       <r>    7.9372    0.0000 </r>
       <r>    8.4223    0.0000 </r>
       <r>    9.2706    0.0000 </r>
       <r>    9.3664    0.0000 </r>
       <r>   13.0050    0.0000 </r>
       <r>   13.7054    0.0000 </r>
       <r>   14.2466    0.0000 </r>
      </set>
      <set comment="kpoint 34">
       <r>   -6.4132    1.0000 </r>
       <r>    2.1315    1.0000 </r>
       <r>    3.3667    1.0000 </r>
       <r>    3.6470    1.0000 </r>
       <r>    4.7493    1.0000 </r>
       <r>    7.8558    0.0000 </r>
       <r>    8.4276    0.0000 </r>
       <r>    9.1029    0.0000 </r>
       <r>    9.3150    0.0000 </r>
       <r>   13.3279    0.0000 </r>
       <r>   14.7839    0.0000 </r>
       <r>   15.5913    0.0000 </r>
      </set>
      <set comment="kpoint 35">
       <r>   -5.9280    1.0000 </r>
       <r>    1.1439    1.0000 </r>
       <r>    3.3099    1.0000 </r>
       <r>    3.5061    1.0000 </r>
       <r>    4.6504    1.0000 </r>
       <r>    7.8108    0.0000 </r>
       <r>    8.3519    0.0000 </r>
       <r>    8.9530    0.0000 </r>
       <r>    9.6657    0.0000 </r>
       <r>   13.4190    0.0000 </r>
       <r>   13.9158    0.0000 </r>
       <r>   16.1334    0.0000 </r>
      </set>
      <set comment="kpoint 36">
       <r>   -5.3225    1.0000 </r>
       <r>    0.1060    1.0000 </r>
       <r>    3.2511    1.0000 </r>
       <r>    3.3476    1.0000 </r>
       <r>    4.4878    1.0000 </r>
       <r>    7.7957    0.0000 </r>
       <r>    8.5016    0.0000 </r>
       <r>    8.9104    0.0000 </r>
       <r>    9.9224    0.0000 </r>
       <r>   13.2642    0.0000 </r>
       <r>   13.8677    0.0000 </r>
       <r>   15.3959    0.0000 </r>
      </set>
      <set comment="kpoint 37">
       <r>   -4.6086    1.0000 </r>
       <r>   -0.9341    1.0000 </r>
       <r>    3.2049    1.0000 </r>
       <r>    3.2079    1.0000 </r>
       <r>    4.3009    1.0000 </r>
       <r>    7.7856    0.0000 </r>
       <r>    8.8077    0.0000 </r>
       <r>    8.9477    0.0000 </r>
       <r>   10.0134    0.0000 </r>
       <r>   13.1516    0.0000 </r>
       <r>   13.9910    0.0000 </r>
       <r>   15.1483    0.0000 </r>
      </set>
      <set comment="kpoint 38">
       <r>   -3.7986    1.0000 </r>
       <r>   -1.9454    1.0000 </r>
       <r>    3.1071    1.0000 </r>
       <r>    3.1845    1.0000 </r>
       <r>    4.1576    1.0000 </r>
       <r>    7.7737    0.0000 </r>
       <r>    9.0092    0.0000 </r>
       <r>    9.0622    0.0000 </r>
       <r>   10.0724    0.0000 </r>
       <r>   13.0355    0.0000 </r>
       <r>   14.2473    0.0000 </r>
       <r>   14.8677    0.0000 </r>
      </set>
      <set comment="kpoint 39">
       <r>   -2.9112    1.0000 </r>
       <r>   -2.9006    1.0000 </r>
       <r>    3.0725    1.0000 </r>
       <r>    3.1775    1.0000 </r>
       <r>    4.1047    1.0000 </r>
       <r>    7.7682    0.0000 </r>
       <r>    9.0376    0.0000 </r>
       <r>    9.1406    0.0000 </r>
       <r>   10.1257    0.0000 </r>
       <r>   12.9626    0.0000 </r>
       <r>   14.5366    0.0000 </r>
       <r>   14.5932    0.0000 </r>
      </set>
      <set comment="kpoint 40">
       <r>   -6.8399    1.0000 </r>
       <r>    3.2079    1.0000 </r>
       <r>    3.4020    1.0000 </r>
       <r>    3.7244    1.0000 </r>
       <r>    4.8523    1.0000 </r>
       <r>    7.9288    0.0000 </r>
       <r>    8.3989    0.0000 </r>
       <r>    9.3379    0.0000 </r>
       <r>    9.4610    0.0000 </r>
       <r>   13.0025    0.0000 </r>
       <r>   13.2710    0.0000 </r>
       <r>   14.1009    0.0000 </r>
      </set>
      <set comment="kpoint 41">
       <r>   -6.5542    1.0000 </r>
       <r>    2.5196    1.0000 </r>
       <r>    3.3836    1.0000 </r>
       <r>    3.5428    1.0000 </r>
       <r>    4.8677    1.0000 </r>
       <r>    7.7655    0.0000 </r>
       <r>    8.6290    0.0000 </r>
       <r>    9.0205    0.0000 </r>
       <r>    9.3282    0.0000 </r>
       <r>   13.4451    0.0000 </r>
       <r>   14.1524    0.0000 </r>
       <r>   14.8234    0.0000 </r>
      </set>
      <set comment="kpoint 42">
       <r>   -6.1341    1.0000 </r>
       <r>    1.6302    1.0000 </r>
       <r>    3.3002    1.0000 </r>
       <r>    3.3445    1.0000 </r>
       <r>    4.9087    1.0000 </r>
       <r>    7.6044    0.0000 </r>
       <r>    8.5091    0.0000 </r>
       <r>    8.9426    0.0000 </r>
       <r>    9.6071    0.0000 </r>
       <r>   13.5993    0.0000 </r>
       <r>   14.0681    0.0000 </r>
       <r>   16.4376    0.0000 </r>
      </set>
      <set comment="kpoint 43">
       <r>   -5.5886    1.0000 </r>
       <r>    0.6387    1.0000 </r>
       <r>    3.0497    1.0000 </r>
       <r>    3.2917    1.0000 </r>
       <r>    4.8888    1.0000 </r>
       <r>    7.5211    0.0000 </r>
       <r>    8.4362    0.0000 </r>
       <r>    8.9572    0.0000 </r>
       <r>    9.9908    0.0000 </r>
       <r>   13.3628    0.0000 </r>
       <r>   14.0137    0.0000 </r>
       <r>   15.5970    0.0000 </r>
      </set>
      <set comment="kpoint 44">
       <r>   -4.9287    1.0000 </r>
       <r>   -0.3881    1.0000 </r>
       <r>    2.8224    1.0000 </r>
       <r>    3.2522    1.0000 </r>
       <r>    4.7821    1.0000 </r>
       <r>    7.5010    0.0000 </r>
       <r>    8.5292    0.0000 </r>
       <r>    9.0616    0.0000 </r>
       <r>   10.2226    0.0000 </r>
       <r>   13.1821    0.0000 </r>
       <r>   14.0958    0.0000 </r>
       <r>   15.3169    0.0000 </r>
      </set>
      <set comment="kpoint 45">
       <r>   -4.1667    1.0000 </r>
       <r>   -1.4074    1.0000 </r>
       <r>    2.6521    1.0000 </r>
       <r>    3.2318    1.0000 </r>
       <r>    4.6503    1.0000 </r>
       <r>    7.4721    0.0000 </r>
       <r>    8.7438    0.0000 </r>
       <r>    9.1871    0.0000 </r>
       <r>   10.3076    0.0000 </r>
       <r>   13.1118    0.0000 </r>
       <r>   14.2626    0.0000 </r>
       <r>   15.0916    0.0000 </r>
      </set>
      <set comment="kpoint 46">
       <r>   -3.3157    1.0000 </r>
       <r>   -2.3903    1.0000 </r>
       <r>    2.5613    1.0000 </r>
       <r>    3.2252    1.0000 </r>
       <r>    4.5654    1.0000 </r>
       <r>    7.4415    0.0000 </r>
       <r>    8.9226    0.0000 </r>
       <r>    9.2545    0.0000 </r>
       <r>   10.3486    0.0000 </r>
       <r>   13.0409    0.0000 </r>
       <r>   14.5341    0.0000 </r>
       <r>   14.8364    0.0000 </r>
      </set>
      <set comment="kpoint 47">
       <r>   -6.2032    1.0000 </r>
       <r>    1.8860    1.0000 </r>
       <r>    3.0882    1.0000 </r>
       <r>    3.3552    1.0000 </r>
       <r>    5.0811    1.0000 </r>
       <r>    7.4499    0.0000 </r>
       <r>    8.6587    0.0000 </r>
       <r>    8.8731    0.0000 </r>
       <r>    9.6209    0.0000 </r>
       <r>   13.9612    0.0000 </r>
       <r>   14.1436    0.0000 </r>
[...]
       <r>    3.5109    1.0000 </r>
       <r>    8.6822    0.0000 </r>
       <r>    9.2784    0.0000 </r>
       <r>   10.2470    0.0000 </r>
       <r>   10.7850    0.0000 </r>
       <r>   11.9909    0.0000 </r>
       <r>   13.4848    0.0000 </r>
       <r>   15.6939    0.0000 </r>
      </set>
      <set comment="kpoint 232">
       <r>   -3.1611    1.0000 </r>
       <r>   -1.3240    1.0000 </r>
       <r>    1.3835    1.0000 </r>
       <r>    2.8821    1.0000 </r>
       <r>    3.2268    1.0000 </r>
       <r>    8.7285    0.0000 </r>
       <r>    9.4092    0.0000 </r>
       <r>   10.3884    0.0000 </r>
       <r>   10.7848    0.0000 </r>
       <r>   11.7880    0.0000 </r>
       <r>   13.3520    0.0000 </r>
       <r>   15.5362    0.0000 </r>
      </set>
      <set comment="kpoint 233">
       <r>   -4.2575    1.0000 </r>
       <r>    0.7289    1.0000 </r>
       <r>    1.1220    1.0000 </r>
       <r>    1.9265    1.0000 </r>
       <r>    4.3947    1.0000 </r>
       <r>    8.2040    0.0000 </r>
       <r>    8.6689    0.0000 </r>
       <r>    9.4587    0.0000 </r>
       <r>   10.4387    0.0000 </r>
       <r>   13.2847    0.0000 </r>
       <r>   14.7540    0.0000 </r>
       <r>   16.5311    0.0000 </r>
      </set>
      <set comment="kpoint 234">
       <r>   -3.8549    1.0000 </r>
       <r>   -0.0622    1.0000 </r>
       <r>    1.3769    1.0000 </r>
       <r>    1.8862    1.0000 </r>
       <r>    3.9987    1.0000 </r>
       <r>    8.4901    0.0000 </r>
       <r>    8.9898    0.0000 </r>
       <r>    9.7846    0.0000 </r>
       <r>   10.7068    0.0000 </r>
       <r>   12.7525    0.0000 </r>
       <r>   14.7806    0.0000 </r>
       <r>   16.3362    0.0000 </r>
      </set>
      <set comment="kpoint 235">
       <r>   -3.4068    1.0000 </r>
       <r>   -0.8046    1.0000 </r>
       <r>    1.1678    1.0000 </r>
       <r>    2.4279    1.0000 </r>
       <r>    3.6522    1.0000 </r>
       <r>    8.6676    0.0000 </r>
       <r>    9.3507    0.0000 </r>
       <r>   10.0731    0.0000 </r>
       <r>   10.7971    0.0000 </r>
       <r>   12.1612    0.0000 </r>
       <r>   14.6590    0.0000 </r>
       <r>   14.9651    0.0000 </r>
      </set>
      <set comment="kpoint 236">
       <r>   -3.0220    1.0000 </r>
       <r>   -1.3461    1.0000 </r>
       <r>    1.0448    1.0000 </r>
       <r>    2.9140    1.0000 </r>
       <r>    3.3294    1.0000 </r>
       <r>    8.7503    0.0000 </r>
       <r>    9.6139    0.0000 </r>
       <r>   10.2719    0.0000 </r>
       <r>   10.7921    0.0000 </r>
       <r>   11.7386    0.0000 </r>
       <r>   14.4742    0.0000 </r>
       <r>   14.6701    0.0000 </r>
      </set>
      <set comment="kpoint 237">
       <r>   -3.4190    1.0000 </r>
       <r>   -0.7003    1.0000 </r>
       <r>    1.0369    1.0000 </r>
       <r>    2.3968    1.0000 </r>
       <r>    3.7064    1.0000 </r>
       <r>    8.6579    0.0000 </r>
       <r>    9.3836    0.0000 </r>
       <r>   10.0152    0.0000 </r>
       <r>   10.8025    0.0000 </r>
       <r>   12.2437    0.0000 </r>
       <r>   14.6717    0.0000 </r>
       <r>   15.8564    0.0000 </r>
      </set>
      <set comment="kpoint 238">
       <r>   -2.9504    1.0000 </r>
       <r>   -1.3151    1.0000 </r>
       <r>    0.8144    1.0000 </r>
       <r>    2.8701    1.0000 </r>
       <r>    3.4612    1.0000 </r>
       <r>    8.7497    0.0000 </r>
       <r>    9.7653    0.0000 </r>
       <r>   10.2063    0.0000 </r>
       <r>   10.8064    0.0000 </r>
       <r>   11.7066    0.0000 </r>
       <r>   14.0757    0.0000 </r>
       <r>   15.9216    0.0000 </r>
      </set>
      <set comment="kpoint 239">
       <r>   -2.6633    1.0000 </r>
       <r>   -1.6557    1.0000 </r>
       <r>    0.7407    1.0000 </r>
       <r>    3.2080    1.0000 </r>
       <r>    3.2179    1.0000 </r>
       <r>    8.7773    0.0000 </r>
       <r>    9.9521    0.0000 </r>
       <r>   10.2935    0.0000 </r>
       <r>   10.8051    0.0000 </r>
       <r>   11.4278    0.0000 </r>
       <r>   13.8724    0.0000 </r>
       <r>   17.8229    0.0000 </r>
      </set>
      <set comment="kpoint 240">
       <r>   -2.4562    1.0000 </r>
       <r>   -1.8392    1.0000 </r>
       <r>    0.6273    1.0000 </r>
       <r>    3.1700    1.0000 </r>
       <r>    3.3287    1.0000 </r>
       <r>    8.7810    0.0000 </r>
       <r>   10.1360    0.0000 </r>
       <r>   10.2868    0.0000 </r>
       <r>   10.8536    0.0000 </r>
       <r>   11.2252    0.0000 </r>
       <r>   13.6115    0.0000 </r>
       <r>   18.5705    0.0000 </r>
      </set>
      <set comment="kpoint 241">
       <r>   -5.2739    1.0000 </r>
       <r>   -1.1864    1.0000 </r>
       <r>    5.8780    1.0000 </r>
       <r>    5.8780    1.0000 </r>
       <r>    6.1499    1.0000 </r>
       <r>    6.1499    1.0000 </r>
       <r>    6.7751    0.0000 </r>
       <r>    6.7751    0.0000 </r>
       <r>    7.9641    0.0000 </r>
       <r>   13.0923    0.0000 </r>
       <r>   16.1400    0.0000 </r>
       <r>   16.5837    0.0000 </r>
      </set>
      <set comment="kpoint 242">
       <r>   -5.2348    1.0000 </r>
       <r>   -1.0899    1.0000 </r>
       <r>    4.9890    1.0000 </r>
       <r>    5.0811    1.0000 </r>
       <r>    6.6020    0.0000 </r>
       <r>    6.8464    0.0000 </r>
       <r>    6.9183    0.0000 </r>
       <r>    6.9908    0.0000 </r>
       <r>    7.9922    0.0000 </r>
       <r>   13.2331    0.0000 </r>
       <r>   16.2175    0.0000 </r>
       <r>   16.4554    0.0000 </r>
      </set>
      <set comment="kpoint 243">
       <r>   -5.1172    1.0000 </r>
       <r>   -0.8063    1.0000 </r>
       <r>    3.9018    1.0000 </r>
       <r>    4.2419    1.0000 </r>
       <r>    6.1557    1.0000 </r>
       <r>    7.0555    0.0000 </r>
       <r>    7.6727    0.0000 </r>
       <r>    7.9477    0.0000 </r>
       <r>    8.0737    0.0000 </r>
       <r>   13.5454    0.0000 </r>
       <r>   15.6672    0.0000 </r>
       <r>   16.8540    0.0000 </r>
      </set>
      <set comment="kpoint 244">
       <r>   -4.9211    1.0000 </r>
       <r>   -0.3534    1.0000 </r>
       <r>    2.7896    1.0000 </r>
       <r>    3.5025    1.0000 </r>
       <r>    5.5776    1.0000 </r>
       <r>    7.3868    0.0000 </r>
       <r>    8.1988    0.0000 </r>
       <r>    8.3153    0.0000 </r>
       <r>    8.8392    0.0000 </r>
       <r>   13.7845    0.0000 </r>
       <r>   14.9125    0.0000 </r>
       <r>   17.5240    0.0000 </r>
      </set>
      <set comment="kpoint 245">
       <r>   -4.6479    1.0000 </r>
       <r>    0.2369    1.0000 </r>
       <r>    1.7057    1.0000 </r>
       <r>    2.8813    1.0000 </r>
       <r>    4.9802    1.0000 </r>
       <r>    7.8119    0.0000 </r>
       <r>    8.3511    0.0000 </r>
       <r>    8.8847    0.0000 </r>
       <r>    9.5982    0.0000 </r>
       <r>   13.7224    0.0000 </r>
       <r>   14.1587    0.0000 </r>
       <r>   18.1168    0.0000 </r>
      </set>
      <set comment="kpoint 246">
       <r>   -4.3034    1.0000 </r>
       <r>    0.6953    1.0000 </r>
       <r>    0.9159    1.0000 </r>
       <r>    2.3893    1.0000 </r>
       <r>    4.4265    1.0000 </r>
       <r>    8.2855    0.0000 </r>
       <r>    8.5086    0.0000 </r>
       <r>    9.4205    0.0000 </r>
       <r>   10.1797    0.0000 </r>
       <r>   13.3119    0.0000 </r>
       <r>   13.4178    0.0000 </r>
       <r>   18.5508    0.0000 </r>
      </set>
      <set comment="kpoint 247">
       <r>   -3.9080    1.0000 </r>
       <r>   -0.1936    1.0000 </r>
       <r>    1.6153    1.0000 </r>
       <r>    2.0335    1.0000 </r>
       <r>    3.9385    1.0000 </r>
       <r>    8.6466    0.0000 </r>
       <r>    8.7389    0.0000 </r>
       <r>    9.9474    0.0000 </r>
       <r>   10.5738    0.0000 </r>
       <r>   12.7138    0.0000 </r>
       <r>   12.7335    0.0000 </r>
       <r>   17.6846    0.0000 </r>
      </set>
      <set comment="kpoint 248">
       <r>   -3.5276    1.0000 </r>
       <r>   -0.8769    1.0000 </r>
       <r>    1.8185    1.0000 </r>
       <r>    2.2425    1.0000 </r>
       <r>    3.5133    1.0000 </r>
       <r>    8.7412    0.0000 </r>
       <r>    9.0785    0.0000 </r>
       <r>   10.4523    0.0000 </r>
       <r>   10.7964    0.0000 </r>
       <r>   12.0911    0.0000 </r>
       <r>   12.2463    0.0000 </r>
       <r>   17.1333    0.0000 </r>
      </set>
      <set comment="kpoint 249">
       <r>   -3.3443    1.0000 </r>
       <r>   -1.1623    1.0000 </r>
       <r>    1.7466    1.0000 </r>
       <r>    2.5836    1.0000 </r>
       <r>    3.2565    1.0000 </r>
       <r>    8.7749    0.0000 </r>
       <r>    9.2068    0.0000 </r>
       <r>   10.7432    0.0000 </r>
       <r>   10.8678    0.0000 </r>
       <r>   11.7590    0.0000 </r>
       <r>   12.0570    0.0000 </r>
       <r>   20.0823    0.0000 </r>
      </set>
      <set comment="kpoint 250">
       <r>   -5.1564    1.0000 </r>
       <r>   -0.8998    1.0000 </r>
       <r>    4.2361    1.0000 </r>
       <r>    4.4145    1.0000 </r>
       <r>    6.2941    0.9996 </r>
       <r>    6.9864    0.0000 </r>
       <r>    7.5104    0.0000 </r>
       <r>    7.6727    0.0000 </r>
       <r>    8.0474    0.0000 </r>
       <r>   13.4580    0.0000 </r>
       <r>   15.9967    0.0000 </r>
       <r>   16.5187    0.0000 </r>
      </set>
      <set comment="kpoint 251">
       <r>   -4.9994    1.0000 </r>
       <r>   -0.5311    1.0000 </r>
       <r>    3.2402    1.0000 </r>
       <r>    3.6794    1.0000 </r>
       <r>    5.7894    1.0000 </r>
       <r>    7.2560    0.0000 </r>
       <r>    8.1267    0.0000 </r>
       <r>    8.1525    0.0000 </r>
       <r>    8.5234    0.0000 </r>
       <r>   13.7275    0.0000 </r>
       <r>   15.3666    0.0000 </r>
       <r>   16.8686    0.0000 </r>
      </set>
      <set comment="kpoint 252">
       <r>   -4.7640    1.0000 </r>
       <r>   -0.0081    1.0000 </r>
       <r>    2.1838    1.0000 </r>
       <r>    3.0291    1.0000 </r>
       <r>    5.2135    1.0000 </r>
       <r>    7.6334    0.0000 </r>
       <r>    8.2954    0.0000 </r>
       <r>    8.6795    0.0000 </r>
       <r>    9.3308    0.0000 </r>
       <r>   13.8041    0.0000 </r>
       <r>   14.6542    0.0000 </r>
       <r>   17.0424    0.0000 </r>
      </set>
      <set comment="kpoint 253">
       <r>   -4.4531    1.0000 </r>
       <r>    0.6298    1.0000 </r>
       <r>    1.1552    1.0000 </r>
       <r>    2.4911    1.0000 </r>
       <r>    4.6520    1.0000 </r>
       <r>    8.0801    0.0000 </r>
       <r>    8.4594    0.0000 </r>
       <r>    9.1905    0.0000 </r>
       <r>    9.9935    0.0000 </r>
       <r>   13.5429    0.0000 </r>
       <r>   13.9417    0.0000 </r>
       <r>   17.7750    0.0000 </r>
      </set>
      <set comment="kpoint 254">
       <r>   -4.0774    1.0000 </r>
       <r>    0.2107    1.0000 </r>
       <r>    1.3243    1.0000 </r>
       <r>    2.0794    1.0000 </r>
       <r>    4.1467    1.0000 </r>
       <r>    8.5068    0.0000 </r>
       <r>    8.6549    0.0000 </r>
       <r>    9.6821    0.0000 </r>
       <r>   10.4653    0.0000 </r>
       <r>   13.0118    0.0000 </r>
       <r>   13.2631    0.0000 </r>
       <r>   17.3934    0.0000 </r>
      </set>
      <set comment="kpoint 255">
       <r>   -3.6726    1.0000 </r>
       <r>   -0.5866    1.0000 </r>
       <r>    1.8015    1.0000 </r>
       <r>    1.9964    1.0000 </r>
       <r>    3.7040    1.0000 </r>
       <r>    8.6954    0.0000 </r>
       <r>    8.9950    0.0000 </r>
       <r>   10.1558    0.0000 </r>
       <r>   10.7362    0.0000 </r>
       <r>   12.4410    0.0000 </r>
       <r>   12.6681    0.0000 </r>
       <r>   16.7653    0.0000 </r>
      </set>
      <set comment="kpoint 256">
       <r>   -3.3539    1.0000 </r>
       <r>   -1.1053    1.0000 </r>
       <r>    1.6615    1.0000 </r>
       <r>    2.5300    1.0000 </r>
       <r>    3.3305    1.0000 </r>
       <r>    8.7681    0.0000 </r>
       <r>    9.2350    0.0000 </r>
       <r>   10.5628    0.0000 </r>
       <r>   10.7881    0.0000 </r>
       <r>   12.0759    0.0000 </r>
       <r>   12.2697    0.0000 </r>
       <r>   16.4229    0.0000 </r>
      </set>
      <set comment="kpoint 257">
       <r>   -4.8026    1.0000 </r>
       <r>   -0.0912    1.0000 </r>
       <r>    2.4191    1.0000 </r>
       <r>    3.0097    1.0000 </r>
       <r>    5.2986    1.0000 </r>
       <r>    7.5708    0.0000 </r>
       <r>    8.2790    0.0000 </r>
       <r>    8.6193    0.0000 </r>
       <r>    9.2306    0.0000 </r>
       <r>   13.8247    0.0000 </r>
       <r>   15.0834    0.0000 </r>
       <r>   16.3310    0.0000 </r>
      </set>
      <set comment="kpoint 258">
       <r>   -4.5276    1.0000 </r>
       <r>    0.4830    1.0000 </r>
       <r>    1.4978    1.0000 </r>
       <r>    2.4294    1.0000 </r>
       <r>    4.7787    1.0000 </r>
       <r>    7.9678    0.0000 </r>
       <r>    8.4430    0.0000 </r>
       <r>    9.0721    0.0000 </r>
       <r>    9.9074    0.0000 </r>
       <r>   13.6761    0.0000 </r>
       <r>   14.6381    0.0000 </r>
       <r>   17.3432    0.0000 </r>
      </set>
      <set comment="kpoint 259">
       <r>   -4.1791    1.0000 </r>
       <r>    0.5714    1.0000 </r>
       <r>    1.1436    1.0000 </r>
       <r>    1.9732    1.0000 </r>
       <r>    4.2911    1.0000 </r>
       <r>    8.3728    0.0000 </r>
       <r>    8.6553    0.0000 </r>
       <r>    9.4979    0.0000 </r>
       <r>   10.4202    0.0000 </r>
       <r>   13.2429    0.0000 </r>
       <r>   14.1110    0.0000 </r>
       <r>   16.8431    0.0000 </r>
      </set>
      <set comment="kpoint 260">
       <r>   -3.7747    1.0000 </r>
       <r>   -0.2787    1.0000 </r>
       <r>    1.6445    1.0000 </r>
       <r>    1.8220    1.0000 </r>
       <r>    3.8607    1.0000 </r>
       <r>    8.6275    0.0000 </r>
       <r>    8.9876    0.0000 </r>
       <r>    9.9032    0.0000 </r>
       <r>   10.7108    0.0000 </r>
       <r>   12.6509    0.0000 </r>
       <r>   13.6311    0.0000 </r>
       <r>   16.0263    0.0000 </r>
      </set>
      <set comment="kpoint 261">
       <r>   -3.3760    1.0000 </r>
       <r>   -0.9561    1.0000 </r>
       <r>    1.4459    1.0000 </r>
       <r>    2.4299    1.0000 </r>
       <r>    3.4805    1.0000 </r>
       <r>    8.7452    0.0000 </r>
       <r>    9.3136    0.0000 </r>
       <r>   10.2667    0.0000 </r>
       <r>   10.7800    0.0000 </r>
       <r>   12.1338    0.0000 </r>
       <r>   13.2912    0.0000 </r>
       <r>   15.5339    0.0000 </r>
      </set>
      <set comment="kpoint 262">
       <r>   -3.1768    1.0000 </r>
       <r>   -1.2501    1.0000 </r>
       <r>    1.3794    1.0000 </r>
       <r>    2.7819    1.0000 </r>
       <r>    3.2225    1.0000 </r>
       <r>    8.7826    0.0000 </r>
       <r>    9.4473    0.0000 </r>
       <r>   10.4729    0.0000 </r>
       <r>   10.7218    0.0000 </r>
       <r>   11.9254    0.0000 </r>
       <r>   13.1674    0.0000 </r>
       <r>   15.3606    0.0000 </r>
      </set>
      <set comment="kpoint 263">
       <r>   -4.2129    1.0000 </r>
       <r>    0.7392    1.0000 </r>
       <r>    1.0825    1.0000 </r>
       <r>    1.8852    1.0000 </r>
       <r>    4.3428    1.0000 </r>
       <r>    8.3249    0.0000 </r>
       <r>    8.6594    0.0000 </r>
       <r>    9.4370    0.0000 </r>
       <r>   10.4078    0.0000 </r>
       <r>   13.3411    0.0000 </r>
       <r>   14.7649    0.0000 </r>
       <r>   16.3947    0.0000 </r>
      </set>
      <set comment="kpoint 264">
       <r>   -3.8270    1.0000 </r>
       <r>   -0.0496    1.0000 </r>
       <r>    1.4757    1.0000 </r>
       <r>    1.7323    1.0000 </r>
       <r>    3.9494    1.0000 </r>
       <r>    8.5775    0.0000 </r>
       <r>    9.0059    0.0000 </r>
       <r>    9.7784    0.0000 </r>
       <r>   10.7009    0.0000 </r>
       <r>   12.8149    0.0000 </r>
       <r>   14.7332    0.0000 </r>
       <r>   15.8930    0.0000 </r>
      </set>
      <set comment="kpoint 265">
       <r>   -3.3970    1.0000 </r>
       <r>   -0.7825    1.0000 </r>
       <r>    1.2076    1.0000 </r>
       <r>    2.3521    1.0000 </r>
       <r>    3.6092    1.0000 </r>
       <r>    8.7160    0.0000 </r>
       <r>    9.4053    0.0000 </r>
       <r>   10.0927    0.0000 </r>
       <r>   10.7779    0.0000 </r>
       <r>   12.2190    0.0000 </r>
       <r>   14.5515    0.0000 </r>
       <r>   14.8172    0.0000 </r>
      </set>
      <set comment="kpoint 266">
       <r>   -3.0317    1.0000 </r>
       <r>   -1.3088    1.0000 </r>
       <r>    1.0751    1.0000 </r>
       <r>    2.8517    1.0000 </r>
       <r>    3.2990    1.0000 </r>
       <r>    8.7807    0.0000 </r>
       <r>    9.6921    0.0000 </r>
       <r>   10.3395    0.0000 </r>
       <r>   10.7146    0.0000 </r>
       <r>   11.7918    0.0000 </r>
       <r>   14.4235    0.0000 </r>
       <r>   14.4538    0.0000 </r>
      </set>
      <set comment="kpoint 267">
       <r>   -3.4054    1.0000 </r>
       <r>   -0.6995    1.0000 </r>
       <r>    1.0984    1.0000 </r>
       <r>    2.3239    1.0000 </r>
       <r>    3.6589    1.0000 </r>
       <r>    8.7025    0.0000 </r>
       <r>    9.4470    0.0000 </r>
       <r>   10.0374    0.0000 </r>
       <r>   10.7772    0.0000 </r>
       <r>   12.2680    0.0000 </r>
       <r>   14.5362    0.0000 </r>
       <r>   15.5889    0.0000 </r>
      </set>
      <set comment="kpoint 268">
       <r>   -2.9513    1.0000 </r>
       <r>   -1.3126    1.0000 </r>
       <r>    0.8732    1.0000 </r>
       <r>    2.8259    1.0000 </r>
       <r>    3.4194    1.0000 </r>
       <r>    8.7720    0.0000 </r>
       <r>    9.8835    0.0000 </r>
       <r>   10.2680    0.0000 </r>
       <r>   10.7156    0.0000 </r>
       <r>   11.6936    0.0000 </r>
       <r>   13.9299    0.0000 </r>
       <r>   15.8638    0.0000 </r>
      </set>
      <set comment="kpoint 269">
       <r>   -2.6756    1.0000 </r>
       <r>   -1.6456    1.0000 </r>
       <r>    0.7991    1.0000 </r>
       <r>    3.1646    1.0000 </r>
       <r>    3.1876    1.0000 </r>
       <r>    8.7932    0.0000 </r>
       <r>   10.1183    0.0000 </r>
       <r>   10.3987    0.0000 </r>
       <r>   10.6363    0.0000 </r>
       <r>   11.3925    0.0000 </r>
       <r>   13.7292    0.0000 </r>
       <r>   15.8445    0.0000 </r>
      </set>
      <set comment="kpoint 270">
       <r>   -2.4642    1.0000 </r>
       <r>   -1.8459    1.0000 </r>
       <r>    0.6976    1.0000 </r>
       <r>    3.1400    1.0000 </r>
       <r>    3.2924    1.0000 </r>
       <r>    8.7941    0.0000 </r>
       <r>   10.4068    0.0000 </r>
       <r>   10.4292    0.0000 </r>
       <r>   10.5975    0.0000 </r>
       <r>   11.1074    0.0000 </r>
       <r>   13.4801    0.0000 </r>
       <r>   17.4044    0.0000 </r>
      </set>
     </set>
    </set>
   </array>
  </eigenvalues>
  <separator name="orbital magnetization" >
   <v name="MAGDIPOLOUT">      0.00000000      0.00000000      0.00000000</v>
  </separator>
 </calculation>
 <structure name="finalpos" >
  <crystal>
   <varray name="basis" >
    <v>       3.03293523      -0.00000000       0.00000000 </v>
    <v>      -1.51646762       2.62659896      -0.00000000 </v>
    <v>      -0.00000000      -0.00000000       3.22568951 </v>
   </varray>
   <i name="volume">     25.69682495 </i>
   <varray name="rec_basis" >
    <v>       0.32971360       0.19036024       0.00000000 </v>
    <v>       0.00000000       0.38072047       0.00000000 </v>
    <v>      -0.00000000       0.00000000       0.31001124 </v>
   </varray>
  </crystal>
  <varray name="positions" >
   <v>      -0.00000000      -0.00000000      -0.00000000 </v>
   <v>       0.33333333       0.66666667       0.50000000 </v>
   <v>       0.66666667       0.33333333       0.50000000 </v>
  </varray>
 </structure>
</modeling>
