unknown system                          
           1
     3.032970    0.000000    0.000000
    -1.516485    2.626629    0.000000
     0.000000    0.000000    3.225881
   Ti   B 
   1   2
Direct configuration=     1
   0.00000000  0.00000000  0.00000000
   0.33333333  0.66666667  0.50000000
   0.66666667  0.33333333  0.50000000
unknown system                          
           1
     3.033011    0.000000    0.000000
    -1.516505    2.626664   -0.000000
    -0.000000   -0.000000    3.225677
   Ti   B 
   1   2
Direct configuration=     2
  -0.00000000  0.00000000  0.00000000
   0.33333333  0.66666667  0.50000000
   0.66666667  0.33333333  0.50000000
unknown system                          
           1
     3.032935   -0.000000    0.000000
    -1.516468    2.626599   -0.000000
    -0.000000   -0.000000    3.225690
   Ti   B 
   1   2
Direct configuration=     3
  -0.00000000 -0.00000000 -0.00000000
   0.33333333  0.66666667  0.50000000
   0.66666667  0.33333333  0.50000000
