   2   2   0   0
  0.3849676E+02  0.2432238E-09  0.2432238E-09  0.1552239E-08  0.1000000E-15
  1.000000000000000E-004
  CAR 
 unknown system                          
     86.99818999    -27.40937254  301     -1.97752479      1.00000000
    -27.409  0.0000E+00  0.0000E+00
    -27.028  0.0000E+00  0.0000E+00
    -26.647  0.0000E+00  0.0000E+00
    -26.265  0.0000E+00  0.0000E+00
    -25.884  0.0000E+00  0.0000E+00
    -25.503  0.0000E+00  0.0000E+00
    -25.121  0.0000E+00  0.0000E+00
    -24.740  0.0000E+00  0.0000E+00
    -24.359  0.0000E+00  0.0000E+00
    -23.977  0.0000E+00  0.0000E+00
    -23.596  0.0000E+00  0.0000E+00
    -23.214  0.0000E+00  0.0000E+00
    -22.833  0.0000E+00  0.0000E+00
    -22.452  0.2558E-06  0.9757E-07
    -22.070  0.2505E-02  0.9556E-03
    -21.689  0.6120E-02  0.3289E-02
    -21.308  0.5991E-02  0.5574E-02
    -20.926  0.4747E-02  0.7384E-02
    -20.545  0.6946E-02  0.1003E-01
    -20.164  0.5037E-02  0.1195E-01
    -19.782  0.7838E-02  0.1494E-01
    -19.401  0.3850E-02  0.1641E-01
    -19.019  0.7410E-02  0.1924E-01
    -18.638  0.4493E-02  0.2095E-01
    -18.257  0.8348E-02  0.2413E-01
    -17.875  0.5648E-02  0.2629E-01
    -17.494  0.4251E-02  0.2791E-01
    -17.113  0.1084E-01  0.3204E-01
    -16.731  0.5206E-02  0.3403E-01
    -16.350  0.4228E-02  0.3564E-01
    -15.969  0.6770E-02  0.3822E-01
    -15.587  0.4020E-02  0.3976E-01
    -15.206  0.7150E-02  0.4248E-01
    -14.825  0.4900E-02  0.4435E-01
    -14.443  0.8430E-02  0.4757E-01
    -14.062  0.6460E-02  0.5003E-01
    -13.680  0.7535E-02  0.5290E-01
    -13.299  0.3139E-02  0.5410E-01
    -12.918  0.8914E-02  0.5750E-01
    -12.536  0.6367E-02  0.5993E-01
    -12.155  0.6371E-02  0.6236E-01
    -11.774  0.5674E-02  0.6452E-01
    -11.392  0.1083E-01  0.6865E-01
    -11.011  0.5318E-02  0.7068E-01
    -10.630  0.8028E-02  0.7374E-01
    -10.248  0.8967E-02  0.7716E-01
     -9.867  0.1331E-01  0.8223E-01
     -9.486  0.1449E-01  0.8776E-01
     -9.104  0.1569E-01  0.9374E-01
     -8.723  0.1868E-01  0.1009E+00
     -8.341  0.1553E-01  0.1068E+00
     -7.960  0.1213E-01  0.1114E+00
     -7.579  0.1664E-01  0.1178E+00
     -7.197  0.1338E-01  0.1229E+00
     -6.816  0.9969E-02  0.1267E+00
     -6.435  0.1510E-01  0.1324E+00
     -6.053  0.8000E-02  0.1355E+00
     -5.672  0.1162E-01  0.1399E+00
     -5.291  0.1306E-01  0.1449E+00
     -4.909  0.5958E-02  0.1472E+00
     -4.528  0.1123E-01  0.1514E+00
     -4.147  0.9449E-02  0.1550E+00
     -3.765  0.2227E-02  0.1559E+00
     -3.384  0.5771E-02  0.1581E+00
     -3.002  0.2544E-02  0.1591E+00
     -2.621  0.4010E-03  0.1592E+00
     -2.240  0.2057E-02  0.1600E+00
     -1.858  0.4282E-07  0.1600E+00
     -1.477  0.2587E-03  0.1601E+00
     -1.096  0.2199E-02  0.1609E+00
     -0.714  0.7503E-03  0.1612E+00
     -0.333  0.9599E-02  0.1649E+00
      0.048  0.6535E-02  0.1674E+00
      0.430  0.8915E-02  0.1708E+00
      0.811  0.4325E-02  0.1724E+00
      1.193  0.8841E-02  0.1758E+00
      1.574  0.7097E-02  0.1785E+00
      1.955  0.1154E-01  0.1829E+00
      2.337  0.1101E-01  0.1871E+00
      2.718  0.1707E-01  0.1936E+00
      3.099  0.1579E-01  0.1996E+00
      3.481  0.1466E-01  0.2052E+00
      3.862  0.1570E-01  0.2112E+00
      4.243  0.1871E-01  0.2184E+00
      4.625  0.1916E-01  0.2257E+00
      5.006  0.1905E-01  0.2329E+00
      5.387  0.2581E-01  0.2428E+00
      5.769  0.3121E-01  0.2547E+00
      6.150  0.2506E-01  0.2642E+00
      6.532  0.3570E-01  0.2778E+00
      6.913  0.3688E-01  0.2919E+00
      7.294  0.3247E-01  0.3043E+00
      7.676  0.2736E-01  0.3147E+00
      8.057  0.4445E-01  0.3317E+00
      8.438  0.4288E-01  0.3480E+00
      8.820  0.3269E-01  0.3605E+00
      9.201  0.4007E-01  0.3758E+00
      9.582  0.4839E-01  0.3942E+00
      9.964  0.4317E-01  0.4107E+00
     10.345  0.3745E-01  0.4250E+00
     10.726  0.3247E-01  0.4374E+00
     11.108  0.3594E-01  0.4511E+00
     11.489  0.5012E-01  0.4702E+00
     11.871  0.3284E-01  0.4827E+00
     12.252  0.4997E-01  0.5018E+00
     12.633  0.3065E-01  0.5134E+00
     13.015  0.3262E-01  0.5259E+00
     13.396  0.4834E-01  0.5443E+00
     13.777  0.3816E-01  0.5589E+00
     14.159  0.4780E-01  0.5771E+00
     14.540  0.4733E-01  0.5952E+00
     14.921  0.5008E-01  0.6143E+00
     15.303  0.4566E-01  0.6317E+00
     15.684  0.4502E-01  0.6488E+00
     16.066  0.4005E-01  0.6641E+00
     16.447  0.4037E-01  0.6795E+00
     16.828  0.4048E-01  0.6949E+00
     17.210  0.5401E-01  0.7155E+00
     17.591  0.4750E-01  0.7337E+00
     17.972  0.3737E-01  0.7479E+00
     18.354  0.4499E-01  0.7651E+00
     18.735  0.5354E-01  0.7855E+00
     19.116  0.4455E-01  0.8025E+00
     19.498  0.5893E-01  0.8249E+00
     19.879  0.4338E-01  0.8415E+00
     20.260  0.4658E-01  0.8593E+00
     20.642  0.4621E-01  0.8769E+00
     21.023  0.4881E-01  0.8955E+00
     21.405  0.5202E-01  0.9153E+00
     21.786  0.5296E-01  0.9355E+00
     22.167  0.6069E-01  0.9587E+00
     22.549  0.5666E-01  0.9803E+00
     22.930  0.6102E-01  0.1004E+01
     23.311  0.4894E-01  0.1022E+01
     23.693  0.7322E-01  0.1050E+01
     24.074  0.4703E-01  0.1068E+01
     24.455  0.6220E-01  0.1092E+01
     24.837  0.6149E-01  0.1115E+01
     25.218  0.5359E-01  0.1136E+01
     25.599  0.5602E-01  0.1157E+01
     25.981  0.6000E-01  0.1180E+01
     26.362  0.4254E-01  0.1196E+01
     26.744  0.4676E-01  0.1214E+01
     27.125  0.7013E-01  0.1241E+01
     27.506  0.6236E-01  0.1265E+01
     27.888  0.4945E-01  0.1283E+01
     28.269  0.5446E-01  0.1304E+01
     28.650  0.4903E-01  0.1323E+01
     29.032  0.5430E-01  0.1344E+01
     29.413  0.6203E-01  0.1367E+01
     29.794  0.6682E-01  0.1393E+01
     30.176  0.6787E-01  0.1419E+01
     30.557  0.6041E-01  0.1442E+01
     30.938  0.5538E-01  0.1463E+01
     31.320  0.3890E-01  0.1478E+01
     31.701  0.7318E-01  0.1505E+01
     32.083  0.5797E-01  0.1528E+01
     32.464  0.7151E-01  0.1555E+01
     32.845  0.5242E-01  0.1575E+01
     33.227  0.5848E-01  0.1597E+01
     33.608  0.4442E-01  0.1614E+01
     33.989  0.6326E-01  0.1638E+01
     34.371  0.5596E-01  0.1660E+01
     34.752  0.5720E-01  0.1681E+01
     35.133  0.6259E-01  0.1705E+01
     35.515  0.7698E-01  0.1735E+01
     35.896  0.5821E-01  0.1757E+01
     36.278  0.5920E-01  0.1779E+01
     36.659  0.6124E-01  0.1803E+01
     37.040  0.5304E-01  0.1823E+01
     37.422  0.6609E-01  0.1848E+01
     37.803  0.7272E-01  0.1876E+01
     38.184  0.5767E-01  0.1898E+01
     38.566  0.6734E-01  0.1924E+01
     38.947  0.6196E-01  0.1947E+01
     39.328  0.7957E-01  0.1978E+01
     39.710  0.7229E-01  0.2005E+01
     40.091  0.7960E-01  0.2035E+01
     40.472  0.7106E-01  0.2063E+01
     40.854  0.6275E-01  0.2086E+01
     41.235  0.4973E-01  0.2105E+01
     41.617  0.6996E-01  0.2132E+01
     41.998  0.8540E-01  0.2165E+01
     42.379  0.7678E-01  0.2194E+01
     42.761  0.7016E-01  0.2221E+01
     43.142  0.7223E-01  0.2248E+01
     43.523  0.7612E-01  0.2277E+01
     43.905  0.6077E-01  0.2300E+01
     44.286  0.7425E-01  0.2329E+01
     44.667  0.7474E-01  0.2357E+01
     45.049  0.6012E-01  0.2380E+01
     45.430  0.7451E-01  0.2409E+01
     45.811  0.6643E-01  0.2434E+01
     46.193  0.7256E-01  0.2462E+01
     46.574  0.8510E-01  0.2494E+01
     46.956  0.7445E-01  0.2522E+01
     47.337  0.6959E-01  0.2549E+01
     47.718  0.8350E-01  0.2581E+01
     48.100  0.7325E-01  0.2609E+01
     48.481  0.8689E-01  0.2642E+01
     48.862  0.7680E-01  0.2671E+01
     49.244  0.7978E-01  0.2702E+01
     49.625  0.7810E-01  0.2731E+01
     50.006  0.6553E-01  0.2756E+01
     50.388  0.7561E-01  0.2785E+01
     50.769  0.7762E-01  0.2815E+01
     51.150  0.7893E-01  0.2845E+01
     51.532  0.6812E-01  0.2871E+01
     51.913  0.8736E-01  0.2904E+01
     52.295  0.6655E-01  0.2930E+01
     52.676  0.8857E-01  0.2963E+01
     53.057  0.7494E-01  0.2992E+01
     53.439  0.6865E-01  0.3018E+01
     53.820  0.7835E-01  0.3048E+01
     54.201  0.7613E-01  0.3077E+01
     54.583  0.7869E-01  0.3107E+01
     54.964  0.7606E-01  0.3136E+01
     55.345  0.8083E-01  0.3167E+01
     55.727  0.7447E-01  0.3195E+01
     56.108  0.8639E-01  0.3228E+01
     56.490  0.9815E-01  0.3266E+01
     56.871  0.6000E-01  0.3289E+01
     57.252  0.6923E-01  0.3315E+01
     57.634  0.9346E-01  0.3351E+01
     58.015  0.6322E-01  0.3375E+01
     58.396  0.8209E-01  0.3406E+01
     58.778  0.6799E-01  0.3432E+01
     59.159  0.9235E-01  0.3467E+01
     59.540  0.8623E-01  0.3500E+01
     59.922  0.9832E-01  0.3538E+01
     60.303  0.7680E-01  0.3567E+01
     60.684  0.8313E-01  0.3599E+01
     61.066  0.8392E-01  0.3631E+01
     61.447  0.7568E-01  0.3659E+01
     61.829  0.8667E-01  0.3692E+01
     62.210  0.9614E-01  0.3729E+01
     62.591  0.7935E-01  0.3759E+01
     62.973  0.9955E-01  0.3797E+01
     63.354  0.8101E-01  0.3828E+01
     63.735  0.8473E-01  0.3861E+01
     64.117  0.8640E-01  0.3894E+01
     64.498  0.8004E-01  0.3924E+01
     64.879  0.8689E-01  0.3957E+01
     65.261  0.9966E-01  0.3995E+01
     65.642  0.8582E-01  0.4028E+01
     66.023  0.8109E-01  0.4059E+01
     66.405  0.8446E-01  0.4091E+01
     66.786  0.9205E-01  0.4126E+01
     67.168  0.9018E-01  0.4161E+01
     67.549  0.9112E-01  0.4195E+01
     67.930  0.7726E-01  0.4225E+01
     68.312  0.1010E+00  0.4263E+01
     68.693  0.8029E-01  0.4294E+01
     69.074  0.8221E-01  0.4325E+01
     69.456  0.9206E-01  0.4360E+01
     69.837  0.9673E-01  0.4397E+01
     70.218  0.8463E-01  0.4430E+01
     70.600  0.8867E-01  0.4463E+01
     70.981  0.7972E-01  0.4494E+01
     71.362  0.8443E-01  0.4526E+01
     71.744  0.8720E-01  0.4559E+01
     72.125  0.1032E+00  0.4599E+01
     72.507  0.8155E-01  0.4630E+01
     72.888  0.8912E-01  0.4664E+01
     73.269  0.9963E-01  0.4702E+01
     73.651  0.8600E-01  0.4734E+01
     74.032  0.8299E-01  0.4766E+01
     74.413  0.9239E-01  0.4801E+01
     74.795  0.9871E-01  0.4839E+01
     75.176  0.1000E+00  0.4877E+01
     75.557  0.9974E-01  0.4915E+01
     75.939  0.9262E-01  0.4950E+01
     76.320  0.7082E-01  0.4977E+01
     76.702  0.7316E-01  0.5005E+01
     77.083  0.6801E-01  0.5031E+01
     77.464  0.6351E-01  0.5056E+01
     77.846  0.5571E-01  0.5077E+01
     78.227  0.3157E-01  0.5089E+01
     78.608  0.2556E-01  0.5099E+01
     78.990  0.1383E-01  0.5104E+01
     79.371  0.1968E-01  0.5111E+01
     79.752  0.7640E-02  0.5114E+01
     80.134  0.3259E-02  0.5115E+01
     80.515  0.3282E-02  0.5117E+01
     80.896  0.4089E-02  0.5118E+01
     81.278  0.1101E-02  0.5119E+01
     81.659  0.1766E-02  0.5119E+01
     82.041  0.1598E-02  0.5120E+01
     82.422  0.4909E-06  0.5120E+01
     82.803  0.0000E+00  0.5120E+01
     83.185  0.0000E+00  0.5120E+01
     83.566  0.0000E+00  0.5120E+01
     83.947  0.0000E+00  0.5120E+01
     84.329  0.0000E+00  0.5120E+01
     84.710  0.0000E+00  0.5120E+01
     85.091  0.0000E+00  0.5120E+01
     85.473  0.0000E+00  0.5120E+01
     85.854  0.0000E+00  0.5120E+01
     86.235  0.0000E+00  0.5120E+01
     86.617  0.0000E+00  0.5120E+01
     86.998  0.0000E+00  0.5120E+01
