    2    2   50    1
  0.3849676E+02  0.2432238E-09  0.2432238E-09  0.1552239E-08  0.1000000E-15
  1.000000000000000E-004
  CAR 
 unknown system                          
      8     72    128
 
  0.3125000E-01  0.3125000E-01  0.0000000E+00  0.7812500E-02
    1      -22.153894   1.000000
    2      -10.125429   1.000000
    3       -5.578387   1.000000
    4       -4.771418   1.000000
    5        1.108098   0.000000
    6        2.015656   0.000000
    7        2.555151   0.000000
    8        4.258925   0.000000
    9        4.998035   0.000000
   10        6.615701   0.000000
   11        7.323170   0.000000
   12        7.891740   0.000000
   13        8.922964   0.000000
   14       10.246981   0.000000
   15       12.876920   0.000000
   16       13.097282   0.000000
   17       14.239394   0.000000
   18       19.056069   0.000000
   19       20.891620   0.000000
   20       22.159225   0.000000
   21       25.807264   0.000000
   22       26.211858   0.000000
   23       27.351761   0.000000
   24       28.830690   0.000000
   25       29.908373   0.000000
   26       31.539892   0.000000
   27       33.005958   0.000000
   28       33.169817   0.000000
   29       33.866255   0.000000
   30       34.203470   0.000000
   31       34.307106   0.000000
   32       34.704025   0.000000
   33       35.130461   0.000000
   34       35.146675   0.000000
   35       35.185506   0.000000
   36       35.275030   0.000000
   37       35.414249   0.000000
   38       35.420214   0.000000
   39       35.453091   0.000000
   40       36.840009   0.000000
   41       36.958807   0.000000
   42       37.270096   0.000000
   43       37.291825   0.000000
   44       37.463881   0.000000
   45       37.713994   0.000000
   46       37.733682   0.000000
   47       37.874284   0.000000
   48       38.022611   0.000000
   49       38.270837   0.000000
   50       39.923918   0.000000
   51       40.117554   0.000000
   52       40.353837   0.000000
   53       40.973600   0.000000
   54       41.023515   0.000000
   55       41.322091   0.000000
   56       41.481789   0.000000
   57       41.629189   0.000000
   58       41.657033   0.000000
   59       41.873717   0.000000
   60       42.005178   0.000000
   61       42.142216   0.000000
   62       42.147769   0.000000
   63       42.382900   0.000000
   64       43.877136   0.000000
   65       44.152463   0.000000
   66       44.354186   0.000000
   67       44.371737   0.000000
   68       45.282717   0.000000
   69       45.686987   0.000000
   70       45.773528   0.000000
   71       46.144026   0.000000
   72       46.616805   0.000000
   73       46.723005   0.000000
   74       46.888368   0.000000
   75       46.976052   0.000000
   76       47.800955   0.000000
   77       47.979687   0.000000
   78       48.008538   0.000000
   79       48.110750   0.000000
   80       48.730463   0.000000
   81       48.878706   0.000000
   82       50.073491   0.000000
   83       51.184177   0.000000
   84       51.714158   0.000000
   85       52.747755   0.000000
   86       52.796788   0.000000
   87       53.118188   0.000000
   88       53.153558   0.000000
   89       53.344093   0.000000
   90       53.830899   0.000000
   91       53.871420   0.000000
   92       53.912246   0.000000
   93       54.520292   0.000000
   94       54.998963   0.000000
   95       56.146284   0.000000
   96       57.905314   0.000000
   97       58.321417   0.000000
   98       59.754786   0.000000
   99       59.989621   0.000000
  100       60.319510   0.000000
  101       60.355805   0.000000
  102       60.577612   0.000000
  103       61.245521   0.000000
  104       61.448140   0.000000
  105       61.658305   0.000000
  106       61.856120   0.000000
  107       62.024859   0.000000
  108       62.237499   0.000000
  109       62.488560   0.000000
  110       66.551305   0.000000
  111       67.691258   0.000000
  112       67.699232   0.000000
  113       68.681763   0.000000
  114       68.970489   0.000000
  115       69.427853   0.000000
  116       70.074217   0.000000
  117       70.358006   0.000000
  118       70.409968   0.000000
  119       70.831611   0.000000
  120       71.073510   0.000000
  121       71.096237   0.000000
  122       72.791227   0.000000
  123       72.898248   0.000000
  124       73.041666   0.000000
  125       74.949874   0.000000
  126       75.913084   0.000000
  127       76.895361   0.000000
  128       77.405527   0.000000
 
  0.9375000E-01  0.3125000E-01  0.0000000E+00  0.1562500E-01
    1      -21.897804   1.000000
    2       -9.814640   1.000000
    3       -6.058251   1.000000
    4       -5.669310   1.000000
    5        1.458239   0.000000
    6        2.369155   0.000000
    7        2.912125   0.000000
    8        4.611230   0.000000
    9        5.345541   0.000000
   10        6.964385   0.000000
   11        7.727157   0.000000
   12        8.235857   0.000000
   13        9.279550   0.000000
   14        9.443540   0.000000
   15       13.203160   0.000000
   16       13.710699   0.000000
   17       14.590682   0.000000
   18       19.310098   0.000000
   19       21.244710   0.000000
   20       23.055912   0.000000
   21       24.510381   0.000000
   22       25.112061   0.000000
   23       26.701643   0.000000
   24       29.161511   0.000000
   25       29.431433   0.000000
   26       29.526719   0.000000
   27       30.873160   0.000000
   28       31.023597   0.000000
   29       31.202395   0.000000
   30       32.309204   0.000000
   31       32.580409   0.000000
   32       33.039613   0.000000
   33       33.091589   0.000000
   34       33.376763   0.000000
   35       33.387293   0.000000
   36       33.749982   0.000000
   37       34.318316   0.000000
   38       35.050436   0.000000
   39       35.306986   0.000000
   40       35.826582   0.000000
   41       35.977545   0.000000
   42       36.150169   0.000000
   43       36.425005   0.000000
   44       37.184383   0.000000
   45       37.299068   0.000000
   46       37.695863   0.000000
   47       37.846299   0.000000
   48       38.314388   0.000000
   49       39.070654   0.000000
   50       39.098671   0.000000
   51       39.597504   0.000000
   52       39.861614   0.000000
   53       39.959714   0.000000
   54       40.055926   0.000000
   55       40.436791   0.000000
   56       41.998485   0.000000
   57       42.189641   0.000000
   58       42.820723   0.000000
   59       43.580317   0.000000
   60       44.018731   0.000000
   61       44.101363   0.000000
   62       44.153283   0.000000
   63       44.269471   0.000000
   64       44.637438   0.000000
   65       44.936949   0.000000
   66       45.075772   0.000000
   67       45.725946   0.000000
   68       46.571032   0.000000
   69       46.717271   0.000000
   70       46.799364   0.000000
   71       46.924181   0.000000
   72       47.583753   0.000000
   73       47.609384   0.000000
   74       48.253935   0.000000
   75       48.580083   0.000000
   76       49.009685   0.000000
   77       49.118398   0.000000
   78       49.229541   0.000000
   79       49.540978   0.000000
   80       49.902726   0.000000
   81       50.679245   0.000000
   82       50.888082   0.000000
   83       51.145139   0.000000
   84       51.242504   0.000000
   85       51.783159   0.000000
   86       52.469208   0.000000
   87       52.898874   0.000000
   88       53.020887   0.000000
   89       54.302801   0.000000
   90       54.803777   0.000000
   91       56.135989   0.000000
   92       56.237694   0.000000
   93       56.709448   0.000000
   94       56.752890   0.000000
   95       57.041544   0.000000
   96       57.474731   0.000000
   97       58.722375   0.000000
   98       59.190915   0.000000
   99       59.373357   0.000000
  100       59.485672   0.000000
  101       59.993254   0.000000
  102       60.003295   0.000000
  103       60.841498   0.000000
  104       62.491644   0.000000
  105       63.272203   0.000000
  106       63.507896   0.000000
  107       63.823701   0.000000
  108       64.940748   0.000000
  109       65.541776   0.000000
  110       65.605487   0.000000
  111       66.591834   0.000000
  112       67.262919   0.000000
  113       68.182430   0.000000
  114       68.677504   0.000000
  115       69.092889   0.000000
  116       69.893792   0.000000
  117       70.595078   0.000000
  118       71.241988   0.000000
  119       71.745728   0.000000
  120       72.241744   0.000000
  121       72.388388   0.000000
  122       73.071738   0.000000
  123       73.838699   0.000000
  124       73.905426   0.000000
  125       75.066648   0.000000
  126       75.759065   0.000000
  127       76.895543   0.000000
  128       77.586808   0.000000
 
  0.1562500E+00  0.3125000E-01  0.0000000E+00  0.1562500E-01
    1      -21.442156   1.000000
    2       -9.264401   1.000000
    3       -7.229415   1.000000
    4       -6.570860   1.000000
    5        2.082904   0.000000
    6        2.999188   0.000000
    7        3.549480   0.000000
    8        5.238622   0.000000
    9        5.955571   0.000000
   10        6.755741   0.000000
   11        8.117544   0.000000
   12        8.848672   0.000000
   13        9.171181   0.000000
   14        9.905257   0.000000
   15       13.769318   0.000000
   16       14.699111   0.000000
   17       15.214292   0.000000
   18       19.570980   0.000000
   19       21.839991   0.000000
   20       22.491600   0.000000
   21       23.605310   0.000000
   22       24.038498   0.000000
   23       26.151436   0.000000
   24       26.668523   0.000000
   25       27.254985   0.000000
   26       27.683740   0.000000
   27       29.385764   0.000000
   28       29.460988   0.000000
   29       29.698773   0.000000
   30       29.764457   0.000000
   31       29.783149   0.000000
   32       30.874210   0.000000
   33       31.390216   0.000000
   34       31.417836   0.000000
   35       32.177443   0.000000
   36       32.320474   0.000000
   37       33.146360   0.000000
   38       33.419530   0.000000
   39       33.541781   0.000000
   40       33.676757   0.000000
   41       34.241377   0.000000
   42       34.780529   0.000000
   43       36.389836   0.000000
   44       36.665158   0.000000
   45       37.348608   0.000000
   46       37.736102   0.000000
   47       38.088308   0.000000
   48       38.616920   0.000000
   49       38.771209   0.000000
   50       38.855916   0.000000
   51       39.236472   0.000000
   52       39.262649   0.000000
   53       40.425157   0.000000
   54       40.490329   0.000000
   55       42.013230   0.000000
   56       42.331472   0.000000
   57       42.548432   0.000000
   58       42.821348   0.000000
   59       43.465223   0.000000
   60       43.867369   0.000000
   61       44.090847   0.000000
   62       44.719050   0.000000
   63       44.892231   0.000000
   64       45.069961   0.000000
   65       46.463304   0.000000
   66       46.575240   0.000000
   67       47.198246   0.000000
   68       47.627042   0.000000
   69       47.845714   0.000000
   70       48.019633   0.000000
   71       48.374986   0.000000
   72       49.081253   0.000000
   73       49.369173   0.000000
   74       49.839495   0.000000
   75       49.925511   0.000000
   76       50.543767   0.000000
   77       50.584773   0.000000
   78       50.827266   0.000000
   79       51.590278   0.000000
   80       51.860190   0.000000
   81       52.211518   0.000000
   82       52.298924   0.000000
   83       52.639894   0.000000
   84       52.778341   0.000000
   85       53.606810   0.000000
   86       53.927750   0.000000
   87       54.409103   0.000000
   88       54.449310   0.000000
   89       55.411122   0.000000
   90       56.044620   0.000000
   91       57.286268   0.000000
   92       57.587556   0.000000
   93       57.786414   0.000000
   94       58.079405   0.000000
   95       58.375952   0.000000
   96       58.627972   0.000000
   97       59.191585   0.000000
   98       59.253286   0.000000
   99       60.094273   0.000000
  100       60.375977   0.000000
  101       61.225160   0.000000
  102       61.897471   0.000000
  103       62.680293   0.000000
  104       63.356212   0.000000
  105       63.878941   0.000000
  106       65.125860   0.000000
  107       65.761703   0.000000
  108       65.929609   0.000000
  109       66.291308   0.000000
  110       66.444213   0.000000
  111       66.656128   0.000000
  112       67.276546   0.000000
  113       67.416041   0.000000
  114       68.443485   0.000000
  115       69.852873   0.000000
  116       70.378864   0.000000
  117       70.590397   0.000000
  118       72.835356   0.000000
  119       73.001741   0.000000
  120       73.401561   0.000000
  121       73.778903   0.000000
  122       74.261510   0.000000
  123       75.087840   0.000000
  124       75.103063   0.000000
  125       76.416764   0.000000
  126       76.875967   0.000000
  127       77.443127   0.000000
  128       77.499352   0.000000
 
  0.2187500E+00  0.3125000E-01  0.0000000E+00  0.1562500E-01
    1      -20.789619   1.000000
    2       -8.858671   1.000000
    3       -8.484285   1.000000
    4       -7.328929   1.000000
    5        2.980865   0.000000
    6        3.901105   0.000000
    7        4.466607   0.000000
    8        6.111093   0.000000
    9        6.369502   0.000000
   10        6.473299   0.000000
   11        6.937226   0.000000
   12        9.720209   0.000000
   13       10.796514   0.000000
   14       10.982745   0.000000
   15       14.533032   0.000000
   16       15.861746   0.000000
   17       16.117533   0.000000
   18       19.052985   0.000000
   19       21.581603   0.000000
   20       22.180662   0.000000
   21       22.293573   0.000000
   22       22.697385   0.000000
   23       23.573499   0.000000
   24       23.714180   0.000000
   25       25.460144   0.000000
   26       25.719978   0.000000
   27       26.802808   0.000000
   28       28.123114   0.000000
   29       28.149965   0.000000
   30       29.003806   0.000000
   31       29.518090   0.000000
   32       29.860465   0.000000
   33       30.033008   0.000000
   34       30.310191   0.000000
   35       30.688813   0.000000
   36       30.780199   0.000000
   37       31.202902   0.000000
   38       31.386444   0.000000
   39       32.182274   0.000000
   40       32.624167   0.000000
   41       33.628779   0.000000
   42       33.631386   0.000000
   43       35.016302   0.000000
   44       35.282798   0.000000
   45       35.736319   0.000000
   46       35.936772   0.000000
   47       36.797382   0.000000
   48       37.534001   0.000000
   49       38.432350   0.000000
   50       39.543591   0.000000
   51       39.749187   0.000000
   52       40.673041   0.000000
   53       41.110247   0.000000
   54       41.395272   0.000000
   55       41.860562   0.000000
   56       42.117142   0.000000
   57       42.841333   0.000000
   58       42.980072   0.000000
   59       43.363854   0.000000
   60       43.498494   0.000000
   61       44.376453   0.000000
   62       45.497608   0.000000
   63       46.183399   0.000000
   64       46.383225   0.000000
   65       47.079023   0.000000
   66       47.866184   0.000000
   67       47.990035   0.000000
   68       48.487813   0.000000
   69       49.152971   0.000000
   70       49.314712   0.000000
   71       49.499034   0.000000
   72       49.997256   0.000000
   73       50.189165   0.000000
   74       50.578952   0.000000
   75       50.677795   0.000000
   76       51.339221   0.000000
   77       51.553683   0.000000
   78       51.684746   0.000000
   79       53.540767   0.000000
   80       53.795740   0.000000
   81       54.262929   0.000000
   82       54.733489   0.000000
   83       55.250390   0.000000
   84       55.808940   0.000000
   85       56.473660   0.000000
   86       56.479207   0.000000
   87       57.255224   0.000000
   88       57.259003   0.000000
   89       57.482610   0.000000
   90       57.521301   0.000000
   91       58.071442   0.000000
   92       58.081790   0.000000
   93       59.123172   0.000000
   94       59.633310   0.000000
   95       60.071924   0.000000
   96       60.537127   0.000000
   97       61.378329   0.000000
   98       61.472924   0.000000
   99       62.181393   0.000000
  100       62.591333   0.000000
  101       62.649469   0.000000
  102       63.890507   0.000000
  103       64.067757   0.000000
  104       64.312865   0.000000
  105       64.593531   0.000000
  106       65.708418   0.000000
  107       65.894796   0.000000
  108       66.674445   0.000000
  109       67.298878   0.000000
  110       68.160394   0.000000
  111       68.637647   0.000000
  112       69.542873   0.000000
  113       69.579445   0.000000
  114       69.597002   0.000000
  115       69.690864   0.000000
  116       70.212592   0.000000
  117       71.468809   0.000000
  118       74.385263   0.000000
  119       74.388944   0.000000
  120       74.776240   0.000000
  121       75.022928   0.000000
  122       75.162462   0.000000
  123       75.564575   0.000000
  124       76.255096   0.000000
  125       76.446000   0.000000
  126       77.539930   0.000000
  127       77.759934   0.000000
  128       78.089710   0.000000
 
  0.2812500E+00  0.3125000E-01  0.0000000E+00  0.1562500E-01
    1      -19.944493   1.000000
    2      -10.609246   1.000000
    3       -8.006734   1.000000
    4       -7.493482   1.000000
    5        4.148349   0.000000
    6        4.502011   0.000000
    7        5.142743   0.000000
    8        5.654753   0.000000
    9        6.114619   0.000000
   10        7.323901   0.000000
   11        8.079773   0.000000
   12       10.836069   0.000000
   13       11.956056   0.000000
   14       12.866643   0.000000
   15       15.316895   0.000000
   16       16.700384   0.000000
   17       17.226998   0.000000
   18       17.790066   0.000000
   19       19.585061   0.000000
   20       20.228030   0.000000
   21       20.518910   0.000000
   22       21.315489   0.000000
   23       21.931714   0.000000
   24       22.903630   0.000000
   25       23.424729   0.000000
   26       23.742387   0.000000
   27       26.153106   0.000000
   28       26.187091   0.000000
   29       26.781719   0.000000
   30       27.963311   0.000000
   31       28.038878   0.000000
   32       28.374372   0.000000
   33       29.298175   0.000000
   34       29.496719   0.000000
   35       29.797859   0.000000
   36       30.293078   0.000000
   37       30.407601   0.000000
   38       30.897891   0.000000
   39       31.602299   0.000000
   40       31.889189   0.000000
   41       32.361706   0.000000
   42       32.520055   0.000000
   43       32.956608   0.000000
   44       33.699857   0.000000
   45       34.686441   0.000000
   46       35.469516   0.000000
   47       36.514174   0.000000
   48       36.621044   0.000000
   49       38.279480   0.000000
   50       38.645730   0.000000
   51       38.814088   0.000000
   52       39.531308   0.000000
   53       40.667633   0.000000
   54       40.777770   0.000000
   55       41.408766   0.000000
   56       41.546227   0.000000
   57       42.327849   0.000000
   58       44.121352   0.000000
   59       45.196989   0.000000
   60       46.050991   0.000000
   61       46.200489   0.000000
   62       46.434803   0.000000
   63       46.644113   0.000000
   64       46.721452   0.000000
   65       47.136400   0.000000
   66       47.502313   0.000000
   67       47.944488   0.000000
   68       48.808824   0.000000
   69       48.906621   0.000000
   70       49.289897   0.000000
   71       50.197114   0.000000
   72       52.002011   0.000000
   73       52.220492   0.000000
   74       52.842241   0.000000
   75       53.518622   0.000000
   76       53.624340   0.000000
   77       54.574267   0.000000
   78       54.631338   0.000000
   79       55.010189   0.000000
   80       55.122284   0.000000
   81       55.398047   0.000000
   82       55.802541   0.000000
   83       56.166521   0.000000
   84       56.505328   0.000000
   85       57.321096   0.000000
   86       57.430017   0.000000
   87       58.009097   0.000000
   88       58.031371   0.000000
   89       60.470759   0.000000
   90       60.609080   0.000000
   91       61.185328   0.000000
   92       61.912171   0.000000
   93       62.577599   0.000000
   94       63.074392   0.000000
   95       63.268721   0.000000
   96       63.300220   0.000000
   97       63.449794   0.000000
   98       63.796841   0.000000
   99       64.570611   0.000000
  100       64.799322   0.000000
  101       64.996680   0.000000
  102       65.359541   0.000000
  103       65.409839   0.000000
  104       65.641854   0.000000
  105       65.958136   0.000000
  106       66.301566   0.000000
  107       66.554211   0.000000
  108       67.382947   0.000000
  109       68.265802   0.000000
  110       69.195658   0.000000
  111       69.325512   0.000000
  112       71.361766   0.000000
  113       71.492227   0.000000
  114       72.025307   0.000000
  115       72.793202   0.000000
  116       73.063845   0.000000
  117       74.122895   0.000000
  118       74.187389   0.000000
  119       74.315507   0.000000
  120       74.598255   0.000000
  121       75.396592   0.000000
  122       75.510867   0.000000
  123       75.616392   0.000000
  124       75.721876   0.000000
  125       76.138324   0.000000
  126       77.175710   0.000000
  127       77.574830   0.000000
  128       77.794419   0.000000
 
  0.3437500E+00  0.3125000E-01  0.0000000E+00  0.1562500E-01
    1      -18.913316   1.000000
    2      -12.364061   1.000000
    3       -8.547054   1.000000
    4       -6.334514   1.000000
    5        2.644967   0.000000
    6        5.536235   0.000000
    7        5.905941   0.000000
    8        6.550394   0.000000
    9        7.151641   0.000000
   10        8.757461   0.000000
   11        9.522602   0.000000
   12       12.142636   0.000000
   13       13.375252   0.000000
   14       13.926375   0.000000
   15       15.169926   0.000000
   16       16.195502   0.000000
   17       16.894537   0.000000
   18       17.180994   0.000000
   19       18.197310   0.000000
   20       18.548816   0.000000
   21       18.894365   0.000000
   22       19.824589   0.000000
   23       20.748082   0.000000
   24       21.005232   0.000000
   25       22.830453   0.000000
   26       23.935119   0.000000
   27       24.724986   0.000000
   28       24.994629   0.000000
   29       25.750732   0.000000
   30       26.964818   0.000000
   31       27.425916   0.000000
   32       27.654858   0.000000
   33       28.027396   0.000000
   34       28.515656   0.000000
   35       29.315669   0.000000
   36       29.625584   0.000000
   37       29.653054   0.000000
   38       29.752687   0.000000
   39       30.339996   0.000000
   40       31.416116   0.000000
   41       31.854111   0.000000
   42       32.055787   0.000000
   43       32.889147   0.000000
   44       33.452293   0.000000
   45       33.952206   0.000000
   46       34.629857   0.000000
   47       35.818618   0.000000
   48       35.820666   0.000000
   49       36.140404   0.000000
   50       37.720743   0.000000
   51       38.285758   0.000000
   52       39.172415   0.000000
   53       40.241033   0.000000
   54       40.395548   0.000000
   55       41.306476   0.000000
   56       42.206749   0.000000
   57       42.564428   0.000000
   58       43.056296   0.000000
   59       43.769647   0.000000
   60       45.289376   0.000000
   61       45.735038   0.000000
   62       46.831002   0.000000
   63       47.214987   0.000000
   64       48.343007   0.000000
   65       48.601072   0.000000
   66       49.429426   0.000000
   67       50.303759   0.000000
   68       50.370680   0.000000
   69       50.919840   0.000000
   70       51.709781   0.000000
   71       52.392229   0.000000
   72       52.519099   0.000000
   73       52.811344   0.000000
   74       53.753581   0.000000
   75       53.774348   0.000000
   76       53.806240   0.000000
   77       55.329867   0.000000
   78       55.715669   0.000000
   79       56.195418   0.000000
   80       56.329300   0.000000
   81       57.239402   0.000000
   82       58.598573   0.000000
   83       59.003035   0.000000
   84       59.199128   0.000000
   85       59.854950   0.000000
   86       60.742640   0.000000
   87       60.974013   0.000000
   88       61.380000   0.000000
   89       61.870078   0.000000
   90       62.207175   0.000000
   91       62.303976   0.000000
   92       63.244702   0.000000
   93       63.355432   0.000000
   94       63.538767   0.000000
   95       64.312990   0.000000
   96       64.533033   0.000000
   97       64.906435   0.000000
   98       65.086068   0.000000
   99       65.774133   0.000000
  100       65.807171   0.000000
  101       66.423890   0.000000
  102       67.597308   0.000000
  103       68.128525   0.000000
  104       68.310894   0.000000
  105       69.258990   0.000000
  106       69.300374   0.000000
  107       69.896858   0.000000
  108       70.198046   0.000000
  109       70.415981   0.000000
  110       71.413480   0.000000
  111       71.717955   0.000000
  112       71.954334   0.000000
  113       72.005816   0.000000
  114       72.452579   0.000000
  115       72.761783   0.000000
  116       73.094256   0.000000
  117       73.605369   0.000000
  118       74.400185   0.000000
  119       74.432865   0.000000
  120       74.719674   0.000000
  121       75.122390   0.000000
  122       75.160899   0.000000
  123       75.415707   0.000000
  124       75.435640   0.000000
  125       75.954785   0.000000
  126       75.993407   0.000000
  127       76.700723   0.000000
  128       76.803955   0.000000
 
  0.4062500E+00  0.3125000E-01  0.0000000E+00  0.1562500E-01
    1      -17.707419   1.000000
    2      -14.050654   1.000000
    3       -8.912859   1.000000
    4       -5.126435   1.000000
    5        0.927608   0.000000
    6        5.673205   0.000000
    7        7.314324   0.000000
    8        8.251289   0.000000
    9        8.905846   0.000000
   10       10.429617   0.000000
   11       11.234069   0.000000
   12       12.373019   0.000000
   13       13.014956   0.000000
   14       13.950253   0.000000
   15       14.350632   0.000000
   16       15.039944   0.000000
   17       15.483090   0.000000
   18       16.150038   0.000000
   19       17.201560   0.000000
   20       17.933372   0.000000
   21       19.320733   0.000000
   22       19.983052   0.000000
   23       20.005320   0.000000
   24       20.270580   0.000000
   25       21.462363   0.000000
   26       22.737939   0.000000
   27       24.869472   0.000000
   28       25.057139   0.000000
   29       25.491602   0.000000
   30       26.121055   0.000000
   31       26.743894   0.000000
   32       26.960579   0.000000
   33       26.987906   0.000000
   34       27.729238   0.000000
   35       28.635818   0.000000
   36       29.026124   0.000000
   37       29.242632   0.000000
   38       29.371625   0.000000
   39       29.778461   0.000000
   40       30.916639   0.000000
   41       31.689011   0.000000
   42       31.710137   0.000000
   43       32.469364   0.000000
   44       32.866639   0.000000
   45       33.407164   0.000000
   46       34.100005   0.000000
   47       35.275498   0.000000
   48       35.309467   0.000000
   49       35.865694   0.000000
   50       37.192246   0.000000
   51       37.260952   0.000000
   52       38.998736   0.000000
   53       39.138039   0.000000
   54       40.377590   0.000000
   55       40.891040   0.000000
   56       41.278563   0.000000
   57       42.447991   0.000000
   58       43.106180   0.000000
   59       44.382194   0.000000
   60       45.089885   0.000000
   61       45.730751   0.000000
   62       46.969566   0.000000
   63       47.481713   0.000000
   64       48.732591   0.000000
   65       49.908518   0.000000
   66       50.125594   0.000000
   67       51.040329   0.000000
   68       52.219457   0.000000
   69       52.394730   0.000000
   70       53.312554   0.000000
   71       53.847003   0.000000
   72       54.182212   0.000000
   73       54.196863   0.000000
   74       55.288847   0.000000
   75       55.431346   0.000000
   76       55.790170   0.000000
   77       56.318866   0.000000
   78       56.387804   0.000000
   79       57.421760   0.000000
   80       59.081341   0.000000
   81       59.543674   0.000000
   82       59.753490   0.000000
   83       60.276971   0.000000
   84       60.394577   0.000000
   85       61.185565   0.000000
   86       61.985304   0.000000
   87       62.684515   0.000000
   88       62.915249   0.000000
   89       62.920465   0.000000
   90       63.238550   0.000000
   91       63.619763   0.000000
   92       63.932542   0.000000
   93       64.821418   0.000000
   94       65.016344   0.000000
   95       65.607278   0.000000
   96       65.615100   0.000000
   97       65.748889   0.000000
   98       66.426388   0.000000
   99       66.758514   0.000000
  100       67.157320   0.000000
  101       67.503357   0.000000
  102       67.757482   0.000000
  103       68.033115   0.000000
  104       69.423496   0.000000
  105       69.467719   0.000000
  106       69.946815   0.000000
  107       70.161636   0.000000
  108       70.230147   0.000000
  109       70.637738   0.000000
  110       71.308767   0.000000
  111       71.647542   0.000000
  112       72.060950   0.000000
  113       72.094422   0.000000
  114       72.175547   0.000000
  115       72.351505   0.000000
  116       72.793526   0.000000
  117       73.564539   0.000000
  118       73.627338   0.000000
  119       74.024748   0.000000
  120       74.160769   0.000000
  121       74.273583   0.000000