 vasp.5.4.4.18Apr17-6-g9f103f2a35 (build Nov 22 2017 20:28:56) complex          
  
 executed on             LinuxIFC date 2019.10.06  19:55:27
 running on   28 total cores
 distrk:  each k-point on   28 cores,    1 groups
 distr:  one band on NCORES_PER_BAND=   7 cores,    4 groups


--------------------------------------------------------------------------------------------------------


 INCAR:
 POTCAR:   PAW_PBE C 08Apr2002                    
 POTCAR:   PAW_PBE C 08Apr2002                    
   VRHFIN =C: s2p2                                                              
   LEXCH  = PE                                                                  
   EATOM  =   147.1560 eV,   10.8157 Ry                                         
                                                                                
   TITEL  = PAW_PBE C 08Apr2002                                                 
   LULTRA =        F    use ultrasoft PP ?                                      
   IUNSCR =        0    unscreen: 0-lin 1-nonlin 2-no                           
   RPACOR =     .000    partial core radius                                     
   POMASS =   12.011; ZVAL   =    4.000    mass and valenz                      
   RCORE  =    1.500    outmost cutoff radius                                   
   RWIGS  =    1.630; RWIGS  =     .863    wigner-seitz radius (au A)           
   ENMAX  =  400.000; ENMIN  =  300.000 eV                                      
   ICORE  =        2    local potential                                         
   LCOR   =        T    correct aug charges                                     
   LPAW   =        T    paw PP                                                  
   EAUG   =  644.873                                                            
   DEXC   =     .000                                                            
   RMAX   =    2.266    core radius for proj-oper                               
   RAUG   =    1.300    factor for augmentation sphere                          
   RDEP   =    1.501    radius for radial grids                                 
   RDEPT  =    1.300    core radius for aug-charge                              
   QCUT   =   -5.516; QGAM   =   11.032    optimization parameters              
                                                                                
   Description                                                                  
     l     E      TYP  RCUT    TYP  RCUT                                        
     0   .000     23  1.200                                                     
     0   .000     23  1.200                                                     
     1   .000     23  1.500                                                     
     1  2.500     23  1.500                                                     
     2   .000      7  1.500                                                     
  local pseudopotential read in
  atomic valenz-charges read in
  non local Contribution for L=           0  read in
    real space projection operators read in
  non local Contribution for L=           0  read in
    real space projection operators read in
  non local Contribution for L=           1  read in
    real space projection operators read in
  non local Contribution for L=           1  read in
    real space projection operators read in
    PAW grid and wavefunctions read in
 
   number of l-projection  operators is LMAX  =           4
   number of lm-projection operators is LMMAX =           8
 
 PAW_PBE C 08Apr2002                    :
 energy of atom  1       EATOM= -147.1560
 kinetic energy error for atom=    0.0071 (will be added to EATOM!!)
 
 
 POSCAR:  C                                      
  positions in direct lattice
  No initial velocities read in
 exchange correlation table for  LEXCH =        8
   RHO(1)=    0.500       N(1)  =     2000
   RHO(2)=  100.500       N(2)  =     4000
 


--------------------------------------------------------------------------------------------------------


 ion  position               nearest neighbor table
   1  0.667  0.333  0.500-   2 1.36   2 1.36   2 1.43
   2  0.333  0.667  0.500-   1 1.36   1 1.36   1 1.43
 
  LATTYP: Found a base centered orthorhombic cell.
 ALAT       =     2.3203089941
 B/A-ratio  =     1.8426118783
 C/A-ratio  =     6.6897959633
  
  Lattice vectors:
  
 A1 = (   1.1601544971,  -2.1377144570,   0.0000000000)
 A2 = (   1.1601544971,   2.1377144570,   0.0000000000)
 A3 = (   0.0000000000,   0.0000000000,  15.5223937426)


Analysis of symmetry for initial positions (statically):
=====================================================================
 Subroutine PRICEL returns:
 Original cell was already a primitive cell.
 

 Routine SETGRP: Setting up the symmetry group for a 
 base centered orthorhombic supercell.


 Subroutine GETGRP returns: Found  8 space group operations
 (whereof  8 operations were pure point group operations)
 out of a pool of  8 trial point group operations.


The static configuration has the point symmetry D_2h.


Analysis of symmetry for dynamics (positions and initial velocities):
=====================================================================
 Subroutine PRICEL returns:
 Original cell was already a primitive cell.
 

 Routine SETGRP: Setting up the symmetry group for a 
 base centered orthorhombic supercell.


 Subroutine GETGRP returns: Found  8 space group operations
 (whereof  8 operations were pure point group operations)
 out of a pool of  8 trial point group operations.


The dynamic configuration has the point symmetry D_2h.


 Subroutine INISYM returns: Found  8 space group operations
 (whereof  8 operations are pure point group operations),
 and found     1 'primitive' translations

 
 
 KPOINTS: A                                       

Automatic generation of k-mesh.
Space group operators:
 irot       det(A)        alpha          n_x          n_y          n_z        tau_x        tau_y        tau_z
    1     1.000000     0.000000     1.000000     0.000000     0.000000     0.000000     0.000000     0.000000
    2    -1.000000     0.000000     1.000000     0.000000     0.000000     0.000000     0.000000     0.000000
    3     1.000000   180.000000     0.000000     0.000000     1.000000     0.000000     0.000000     0.000000
    4    -1.000000   180.000000     0.000000     0.000000     1.000000     0.000000     0.000000     0.000000
    5     1.000000   180.000000     0.000000     1.000000     0.000000     0.000000     0.000000     0.000000
    6    -1.000000   180.000000     0.000000     1.000000     0.000000     0.000000     0.000000     0.000000
    7     1.000000   180.000000     1.000000     0.000000     0.000000     0.000000     0.000000     0.000000
    8    -1.000000   180.000000     1.000000     0.000000     0.000000     0.000000     0.000000     0.000000
 
 Subroutine IBZKPT returns following result:
 ===========================================
 
 Found     72 irreducible k-points:
 
 Following reciprocal coordinates:
            Coordinates               Weight
  0.031250  0.031250  0.000000      2.000000
  0.093750  0.031250  0.000000      4.000000
  0.156250  0.031250  0.000000      4.000000
  0.218750  0.031250  0.000000      4.000000
  0.281250  0.031250  0.000000      4.000000
  0.343750  0.031250  0.000000      4.000000
  0.406250  0.031250  0.000000      4.000000
  0.468750  0.031250  0.000000      4.000000
 -0.468750  0.031250  0.000000      4.000000
 -0.406250  0.031250  0.000000      4.000000
 -0.343750  0.031250  0.000000      4.000000
 -0.281250  0.031250  0.000000      4.000000
 -0.218750  0.031250  0.000000      4.000000
 -0.156250  0.031250  0.000000      4.000000
 -0.093750  0.031250  0.000000      4.000000
 -0.031250  0.031250  0.000000      2.000000
  0.093750  0.093750  0.000000      2.000000
  0.156250  0.093750  0.000000      4.000000
  0.218750  0.093750  0.000000      4.000000
  0.281250  0.093750  0.000000      4.000000
  0.343750  0.093750  0.000000      4.000000
  0.406250  0.093750  0.000000      4.000000
  0.468750  0.093750  0.000000      4.000000
 -0.468750  0.093750  0.000000      4.000000
 -0.406250  0.093750  0.000000      4.000000
 -0.343750  0.093750  0.000000      4.000000
 -0.281250  0.093750  0.000000      4.000000
 -0.218750  0.093750  0.000000      4.000000
 -0.156250  0.093750  0.000000      4.000000
 -0.093750  0.093750  0.000000      2.000000
  0.156250  0.156250  0.000000      2.000000
  0.218750  0.156250  0.000000      4.000000
  0.281250  0.156250  0.000000      4.000000
  0.343750  0.156250  0.000000      4.000000
  0.406250  0.156250  0.000000      4.000000
  0.468750  0.156250  0.000000      4.000000
 -0.468750  0.156250  0.000000      4.000000
 -0.406250  0.156250  0.000000      4.000000
 -0.343750  0.156250  0.000000      4.000000
 -0.281250  0.156250  0.000000      4.000000
 -0.218750  0.156250  0.000000      4.000000
 -0.156250  0.156250  0.000000      2.000000
  0.218750  0.218750  0.000000      2.000000
  0.281250  0.218750  0.000000      4.000000
  0.343750  0.218750  0.000000      4.000000
  0.406250  0.218750  0.000000      4.000000
  0.468750  0.218750  0.000000      4.000000
 -0.468750  0.218750  0.000000      4.000000
 -0.406250  0.218750  0.000000      4.000000
 -0.343750  0.218750  0.000000      4.000000
 -0.281250  0.218750  0.000000      4.000000
 -0.218750  0.218750  0.000000      2.000000
  0.281250  0.281250  0.000000      2.000000
  0.343750  0.281250  0.000000      4.000000
  0.406250  0.281250  0.000000      4.000000
  0.468750  0.281250  0.000000      4.000000
 -0.468750  0.281250  0.000000      4.000000
 -0.406250  0.281250  0.000000      4.000000
 -0.343750  0.281250  0.000000      4.000000
 -0.281250  0.281250  0.000000      2.000000
  0.343750  0.343750  0.000000      2.000000
  0.406250  0.343750  0.000000      4.000000
  0.468750  0.343750  0.000000      4.000000
 -0.468750  0.343750  0.000000      4.000000
 -0.406250  0.343750  0.000000      4.000000
 -0.343750  0.343750  0.000000      2.000000
  0.406250  0.406250  0.000000      2.000000
  0.468750  0.406250  0.000000      4.000000
 -0.468750  0.406250  0.000000      4.000000
 -0.406250  0.406250  0.000000      2.000000
  0.468750  0.468750  0.000000      2.000000
 -0.468750  0.468750  0.000000      2.000000
 
 Following cartesian coordinates:
            Coordinates               Weight
  0.026936  0.000000  0.000000      2.000000
  0.053872 -0.014618  0.000000      4.000000
  0.080808 -0.029237  0.000000      4.000000
  0.107744 -0.043855  0.000000      4.000000
  0.134680 -0.058474  0.000000      4.000000
  0.161616 -0.073092  0.000000      4.000000
  0.188552 -0.087710  0.000000      4.000000
  0.215489 -0.102329  0.000000      4.000000
 -0.188552  0.116947  0.000000      4.000000
 -0.161616  0.102329  0.000000      4.000000
 -0.134680  0.087710  0.000000      4.000000
 -0.107744  0.073092  0.000000      4.000000
 -0.080808  0.058474  0.000000      4.000000
 -0.053872  0.043855  0.000000      4.000000
 -0.026936  0.029237  0.000000      4.000000
  0.000000  0.014618  0.000000      2.000000
  0.080808  0.000000  0.000000      2.000000
  0.107744 -0.014618  0.000000      4.000000
  0.134680 -0.029237  0.000000      4.000000
  0.161616 -0.043855  0.000000      4.000000
  0.188552 -0.058474  0.000000      4.000000
  0.215489 -0.073092  0.000000      4.000000
  0.242425 -0.087710  0.000000      4.000000
 -0.161616  0.131566  0.000000      4.000000
 -0.134680  0.116947  0.000000      4.000000
 -0.107744  0.102329  0.000000      4.000000
 -0.080808  0.087710  0.000000      4.000000
 -0.053872  0.073092  0.000000      4.000000
 -0.026936  0.058474  0.000000      4.000000
  0.000000  0.043855  0.000000      2.000000
  0.134680  0.000000  0.000000      2.000000
  0.161616 -0.014618  0.000000      4.000000
  0.188552 -0.029237  0.000000      4.000000
  0.215489 -0.043855  0.000000      4.000000
  0.242425 -0.058474  0.000000      4.000000
  0.269361 -0.073092  0.000000      4.000000
 -0.134680  0.146184  0.000000      4.000000
 -0.107744  0.131566  0.000000      4.000000
 -0.080808  0.116947  0.000000      4.000000
 -0.053872  0.102329  0.000000      4.000000
 -0.026936  0.087710  0.000000      4.000000
  0.000000  0.073092  0.000000      2.000000
  0.188552  0.000000  0.000000      2.000000
  0.215489 -0.014618  0.000000      4.000000
  0.242425 -0.029237  0.000000      4.000000
  0.269361 -0.043855  0.000000      4.000000
  0.296297 -0.058474  0.000000      4.000000
 -0.107744  0.160803  0.000000      4.000000
 -0.080808  0.146184  0.000000      4.000000
 -0.053872  0.131566  0.000000      4.000000
 -0.026936  0.116947  0.000000      4.000000
  0.000000  0.102329  0.000000      2.000000
  0.242425  0.000000  0.000000      2.000000
  0.269361 -0.014618  0.000000      4.000000
  0.296297 -0.029237  0.000000      4.000000
  0.323233 -0.043855  0.000000      4.000000
 -0.080808  0.175421  0.000000      4.000000
 -0.053872  0.160803  0.000000      4.000000
 -0.026936  0.146184  0.000000      4.000000
  0.000000  0.131566  0.000000      2.000000
  0.296297  0.000000  0.000000      2.000000
  0.323233 -0.014618  0.000000      4.000000
  0.350169 -0.029237  0.000000      4.000000
 -0.053872  0.190039  0.000000      4.000000
 -0.026936  0.175421  0.000000      4.000000
  0.000000  0.160803  0.000000      2.000000
  0.350169  0.000000  0.000000      2.000000
  0.377105 -0.014618  0.000000      4.000000
 -0.026936  0.204658  0.000000      4.000000
  0.000000  0.190039  0.000000      2.000000
  0.404041  0.000000  0.000000      2.000000
  0.000000  0.219276  0.000000      2.000000
 


--------------------------------------------------------------------------------------------------------




 Dimension of arrays:
   k-points           NKPTS =     72   k-points in BZ     NKDIM =     72   number of bands    NBANDS=    128
   number of dos      NEDOS =    301   number of ions     NIONS =      2
   non local maximal  LDIM  =      4   non local SUM 2l+1 LMDIM =      8
   total plane-waves  NPLWV =  38880
   max r-space proj   IRMAX =      1   max aug-charges    IRDMAX=   6158
   dimension x,y,z NGX =    18 NGY =   18 NGZ =  120
   dimension x,y,z NGXF=    36 NGYF=   36 NGZF=  240
   support grid    NGXF=    36 NGYF=   36 NGZF=  240
   ions per type =               2
   NGX,Y,Z   is equivalent  to a cutoff of  12.30, 12.30, 12.85 a.u.
   NGXF,Y,Z  is equivalent  to a cutoff of  24.61, 24.61, 25.70 a.u.

 SYSTEM =  unknown system                          
 POSCAR =   C                                      

 Startparameter for this run:
   NWRITE =      2    write-flag & timer
   PREC   = accura    normal or accurate (medium, high low for compatibility)
   ISTART =      0    job   : 0-new  1-cont  2-samecut
   ICHARG =      2    charge: 1-file 2-atom 10-const
   ISPIN  =      1    spin polarized calculation?
   LNONCOLLINEAR =      F non collinear calculations
   LSORBIT =      F    spin-orbit coupling
   INIWAV =      1    electr: 0-lowe 1-rand  2-diag
   LASPH  =      F    aspherical Exc in radial PAW
   METAGGA=      F    non-selfconsistent MetaGGA calc.

 Electronic Relaxation 1
   ENCUT  =  520.0 eV  38.22 Ry    6.18 a.u.   4.52  4.52 28.86*2*pi/ulx,y,z
   ENINI  =  520.0     initial cutoff
   ENAUG  =  644.9 eV  augmentation charge cutoff
   NELM   =     60;   NELMIN=  2; NELMDL= -5     # of ELM steps 
   EDIFF  = 0.1E-05   stopping-criterion for ELM
   LREAL  =      F    real-space projection
   NLSPLINE    = F    spline interpolate recip. space projectors
   LCOMPAT=      F    compatible to vasp.4.4
   GGA_COMPAT  = T    GGA compatible to vasp.4.4-vasp.4.6
   LMAXPAW     = -100 max onsite density
   LMAXMIX     =    2 max onsite mixed and CHGCAR
   VOSKOWN=      0    Vosko Wilk Nusair interpolation
   ROPT   =    0.00000
 Ionic relaxation
   EDIFFG = 0.1E-04   stopping-criterion for IOM
   NSW    =     50    number of steps for IOM
   NBLOCK =      1;   KBLOCK =     50    inner block; outer block 
   IBRION =      2    ionic relax: 0-MD 1-quasi-New 2-CG
   NFREE  =      1    steps in history (QN), initial steepest desc. (CG)
   ISIF   =      2    stress and relaxation
   IWAVPR =     11    prediction:  0-non 1-charg 2-wave 3-comb
   ISYM   =      2    0-nonsym 1-usesym 2-fastsym
   LCORR  =      T    Harris-Foulkes like correction to forces

   POTIM  = 0.1000    time-step for ionic-motion
   TEIN   =    0.0    initial temperature
   TEBEG  =    0.0;   TEEND  =   0.0 temperature during run
   SMASS  =  -3.00    Nose mass-parameter (am)
   estimated Nose-frequenzy (Omega)   =  0.10E-29 period in steps =****** mass=  -0.135E-27a.u.
   SCALEE = 1.0000    scale energy and forces
   NPACO  =    256;   APACO  = 16.0  distance and # of slots for P.C.
   PSTRESS=    0.0 pullay stress

  Mass of Ions in am
   POMASS =  12.01
  Ionic Valenz
   ZVAL   =   4.00
  Atomic Wigner-Seitz radii
   RWIGS  =  -1.00
  virtual crystal weights 
   VCA    =   1.00
   NELECT =       8.0000    total number of electrons
   NUPDOWN=      -1.0000    fix difference up-down

 DOS related values:
   EMIN   =  10.00;   EMAX   =-10.00  energy-range for DOS
   EFERMI =   0.00
   ISMEAR =     0;   SIGMA  =   0.10  broadening in eV -4-tet -1-fermi 0-gaus

 Electronic relaxation 2 (details)
   IALGO  =     38    algorithm
   LDIAG  =      T    sub-space diagonalisation (order eigenvalues)
   LSUBROT=      F    optimize rotation matrix (better conditioning)
   TURBO    =      0    0=normal 1=particle mesh
   IRESTART =      0    0=no restart 2=restart with 2 vectors
   NREBOOT  =      0    no. of reboots
   NMIN     =      0    reboot dimension
   EREF     =   0.00    reference energy to select bands
   IMIX   =      4    mixing-type and parameters
     AMIX     =   0.40;   BMIX     =  1.00
     AMIX_MAG =   1.60;   BMIX_MAG =  1.00
     AMIN     =   0.10
     WC   =   100.;   INIMIX=   1;  MIXPRE=   1;  MAXMIX= -45

 Intra band minimization:
   WEIMIN = 0.0010     energy-eigenvalue tresh-hold
   EBREAK =  0.20E-08  absolut break condition
   DEPER  =   0.30     relativ break condition  

   TIME   =   0.40     timestep for ELM

  volume/ion in A,a.u.               =      38.50       259.79
  Fermi-wavevector in a.u.,A,eV,Ry     =   0.769638  1.454406  8.059320  0.592343
  Thomas-Fermi vector in A             =   1.870670
 
 Write flags
   LWAVE        =      F    write WAVECAR
   LDOWNSAMPLE  =      F    k-point downsampling of WAVECAR
   LCHARG       =      F    write CHGCAR
   LVTOT        =      F    write LOCPOT, total local potential
   LVHAR        =      F    write LOCPOT, Hartree potential only
   LELF         =      F    write electronic localiz. function (ELF)
   LORBIT       =      0    0 simple, 1 ext, 2 COOP (PROOUT), +10 PAW based schemes


 Dipole corrections
   LMONO  =      F    monopole corrections only (constant potential shift)
   LDIPOL =      F    correct potential (dipole corrections)
   IDIPOL =      0    1-x, 2-y, 3-z, 4-all directions 
   EPSILON=  1.0000000 bulk dielectric constant

 Exchange correlation treatment:
   GGA     =    --    GGA type
   LEXCH   =     8    internal setting for exchange type
   VOSKOWN=      0    Vosko Wilk Nusair interpolation
   LHFCALC =     F    Hartree Fock is set to
   LHFONE  =     F    Hartree Fock one center treatment
   AEXX    =    0.0000 exact exchange contribution

 Linear response parameters
   LEPSILON=     F    determine dielectric tensor
   LRPA    =     F    only Hartree local field effects (RPA)
   LNABLA  =     F    use nabla operator in PAW spheres
   LVEL    =     F    velocity operator in full k-point grid
   LINTERFAST=   F  fast interpolation
   KINTER  =     0    interpolate to denser k-point grid
   CSHIFT  =0.1000    complex shift for real part using Kramers Kronig
   OMEGAMAX=  -1.0    maximum frequency
   DEG_THRESHOLD= 0.2000000E-02 threshold for treating states as degnerate
   RTIME   =   -0.100 relaxation time in fs
  (WPLASMAI=    0.000 imaginary part of plasma frequency in eV, 0.658/RTIME)
   DFIELD  = 0.0000000 0.0000000 0.0000000 field for delta impulse in time
 
 Orbital magnetization related:
   ORBITALMAG=     F  switch on orbital magnetization
   LCHIMAG   =     F  perturbation theory with respect to B field
   DQ        =  0.001000  dq finite difference perturbation B field
   LLRAUG    =     F  two centre corrections for induced B field



--------------------------------------------------------------------------------------------------------


 conjugate gradient relaxation of ions
 charge density and potential will be updated during run
 non-spin polarized calculation
 Variant of blocked Davidson
 Davidson routine will perform the subspace rotation
 perform sub-space diagonalisation
    after iterative eigenvector-optimisation
 modified Broyden-mixing scheme, WC =      100.0
 initial mixing is a Kerker type mixing with AMIX =  0.4000 and BMIX =      1.0000
 Hartree-type preconditioning will be used
 using additional bands          124
 reciprocal scheme for non local part
 calculate Harris-corrections to forces 
   (improved forces if not selfconsistent)
 use gradient corrections 
 use of overlap-Matrix (Vanderbilt PP)
 Gauss-broadening in eV      SIGMA  =   0.10


--------------------------------------------------------------------------------------------------------


  energy-cutoff  :      520.00
  volume of cell :       76.99
      direct lattice vectors                 reciprocal lattice vectors
     1.160154497 -2.137714457  0.000000000     0.430977082 -0.233894662  0.000000000
     1.160154497  2.137714457  0.000000000     0.430977082  0.233894662  0.000000000
     0.000000000  0.000000000 15.522393743     0.000000000  0.000000000  0.064423053

  length of vectors
     2.432237973  2.432237973 15.522393743     0.490354931  0.490354931  0.064423053


 
 k-points in units of 2pi/SCALE and weight: A                                       
   0.02693607  0.00000000  0.00000000       0.008
   0.05387214 -0.01461842  0.00000000       0.016
   0.08080820 -0.02923683  0.00000000       0.016
   0.10774427 -0.04385525  0.00000000       0.016
   0.13468034 -0.05847367  0.00000000       0.016
   0.16161641 -0.07309208  0.00000000       0.016
   0.18855247 -0.08771050  0.00000000       0.016
   0.21548854 -0.10232891  0.00000000       0.016
  -0.18855247  0.11694733  0.00000000       0.016
  -0.16161641  0.10232891  0.00000000       0.016
  -0.13468034  0.08771050  0.00000000       0.016
  -0.10774427  0.07309208  0.00000000       0.016
  -0.08080820  0.05847367  0.00000000       0.016
  -0.05387214  0.04385525  0.00000000       0.016
  -0.02693607  0.02923683  0.00000000       0.016
   0.00000000  0.01461842  0.00000000       0.008
   0.08080820  0.00000000  0.00000000       0.008
   0.10774427 -0.01461842  0.00000000       0.016
   0.13468034 -0.02923683  0.00000000       0.016
   0.16161641 -0.04385525  0.00000000       0.016
   0.18855247 -0.05847367  0.00000000       0.016
   0.21548854 -0.07309208  0.00000000       0.016
   0.24242461 -0.08771050  0.00000000       0.016
  -0.16161641  0.13156575  0.00000000       0.016
  -0.13468034  0.11694733  0.00000000       0.016
  -0.10774427  0.10232891  0.00000000       0.016
  -0.08080820  0.08771050  0.00000000       0.016
  -0.05387214  0.07309208  0.00000000       0.016
  -0.02693607  0.05847367  0.00000000       0.016
   0.00000000  0.04385525  0.00000000       0.008
   0.13468034  0.00000000  0.00000000       0.008
   0.16161641 -0.01461842  0.00000000       0.016
   0.18855247 -0.02923683  0.00000000       0.016
   0.21548854 -0.04385525  0.00000000       0.016
   0.24242461 -0.05847367  0.00000000       0.016
   0.26936068 -0.07309208  0.00000000       0.016
  -0.13468034  0.14618416  0.00000000       0.016
  -0.10774427  0.13156575  0.00000000       0.016
  -0.08080820  0.11694733  0.00000000       0.016
  -0.05387214  0.10232891  0.00000000       0.016
  -0.02693607  0.08771050  0.00000000       0.016
   0.00000000  0.07309208  0.00000000       0.008
   0.18855247  0.00000000  0.00000000       0.008
   0.21548854 -0.01461842  0.00000000       0.016
   0.24242461 -0.02923683  0.00000000       0.016
   0.26936068 -0.04385525  0.00000000       0.016
   0.29629674 -0.05847367  0.00000000       0.016
  -0.10774427  0.16080258  0.00000000       0.016
  -0.08080820  0.14618416  0.00000000       0.016
  -0.05387214  0.13156575  0.00000000       0.016
  -0.02693607  0.11694733  0.00000000       0.016
   0.00000000  0.10232891  0.00000000       0.008
   0.24242461  0.00000000  0.00000000       0.008
   0.26936068 -0.01461842  0.00000000       0.016
   0.29629674 -0.02923683  0.00000000       0.016
   0.32323281 -0.04385525  0.00000000       0.016
  -0.08080820  0.17542100  0.00000000       0.016
  -0.05387214  0.16080258  0.00000000       0.016
  -0.02693607  0.14618416  0.00000000       0.016
   0.00000000  0.13156575  0.00000000       0.008
   0.29629674  0.00000000  0.00000000       0.008
   0.32323281 -0.01461842  0.00000000       0.016
   0.35016888 -0.02923683  0.00000000       0.016
  -0.05387214  0.19003941  0.00000000       0.016
  -0.02693607  0.17542100  0.00000000       0.016
   0.00000000  0.16080258  0.00000000       0.008
   0.35016888  0.00000000  0.00000000       0.008
   0.37710495 -0.01461842  0.00000000       0.016
  -0.02693607  0.20465783  0.00000000       0.016
   0.00000000  0.19003941  0.00000000       0.008
   0.40404101  0.00000000  0.00000000       0.008
   0.00000000  0.21927625  0.00000000       0.008
 
 k-points in reciprocal lattice and weights: A                                       
   0.03125000  0.03125000  0.00000000       0.008
   0.09375000  0.03125000  0.00000000       0.016
   0.15625000  0.03125000  0.00000000       0.016
   0.21875000  0.03125000  0.00000000       0.016
   0.28125000  0.03125000  0.00000000       0.016
   0.34375000  0.03125000  0.00000000       0.016
   0.40625000  0.03125000  0.00000000       0.016
   0.46875000  0.03125000  0.00000000       0.016
  -0.46875000  0.03125000  0.00000000       0.016
  -0.40625000  0.03125000  0.00000000       0.016
  -0.34375000  0.03125000  0.00000000       0.016
  -0.28125000  0.03125000  0.00000000       0.016
  -0.21875000  0.03125000  0.00000000       0.016
  -0.15625000  0.03125000  0.00000000       0.016
  -0.09375000  0.03125000  0.00000000       0.016
  -0.03125000  0.03125000  0.00000000       0.008
   0.09375000  0.09375000  0.00000000       0.008
   0.15625000  0.09375000  0.00000000       0.016
   0.21875000  0.09375000  0.00000000       0.016
   0.28125000  0.09375000  0.00000000       0.016
   0.34375000  0.09375000  0.00000000       0.016
   0.40625000  0.09375000  0.00000000       0.016
   0.46875000  0.09375000  0.00000000       0.016
  -0.46875000  0.09375000  0.00000000       0.016
  -0.40625000  0.09375000  0.00000000       0.016
  -0.34375000  0.09375000  0.00000000       0.016
  -0.28125000  0.09375000  0.00000000       0.016
  -0.21875000  0.09375000  0.00000000       0.016
  -0.15625000  0.09375000  0.00000000       0.016
  -0.09375000  0.09375000  0.00000000       0.008
   0.15625000  0.15625000  0.00000000       0.008
   0.21875000  0.15625000  0.00000000       0.016
   0.28125000  0.15625000  0.00000000       0.016
   0.34375000  0.15625000  0.00000000       0.016
   0.40625000  0.15625000  0.00000000       0.016
   0.46875000  0.15625000  0.00000000       0.016
  -0.46875000  0.15625000  0.00000000       0.016
  -0.40625000  0.15625000  0.00000000       0.016
  -0.34375000  0.15625000  0.00000000       0.016
  -0.28125000  0.15625000  0.00000000       0.016
  -0.21875000  0.15625000  0.00000000       0.016
  -0.15625000  0.15625000  0.00000000       0.008
   0.21875000  0.21875000  0.00000000       0.008
   0.28125000  0.21875000  0.00000000       0.016
   0.34375000  0.21875000  0.00000000       0.016
   0.40625000  0.21875000  0.00000000       0.016
   0.46875000  0.21875000  0.00000000       0.016
  -0.46875000  0.21875000  0.00000000       0.016
  -0.40625000  0.21875000  0.00000000       0.016
  -0.34375000  0.21875000  0.00000000       0.016
  -0.28125000  0.21875000  0.00000000       0.016
  -0.21875000  0.21875000  0.00000000       0.008
   0.28125000  0.28125000  0.00000000       0.008
   0.34375000  0.28125000  0.00000000       0.016
   0.40625000  0.28125000  0.00000000       0.016
   0.46875000  0.28125000  0.00000000       0.016
  -0.46875000  0.28125000  0.00000000       0.016
  -0.40625000  0.28125000  0.00000000       0.016
  -0.34375000  0.28125000  0.00000000       0.016
  -0.28125000  0.28125000  0.00000000       0.008
   0.34375000  0.34375000  0.00000000       0.008
   0.40625000  0.34375000  0.00000000       0.016
   0.46875000  0.34375000  0.00000000       0.016
  -0.46875000  0.34375000  0.00000000       0.016
  -0.40625000  0.34375000  0.00000000       0.016
  -0.34375000  0.34375000  0.00000000       0.008
   0.40625000  0.40625000  0.00000000       0.008
   0.46875000  0.40625000  0.00000000       0.016
  -0.46875000  0.40625000  0.00000000       0.016
  -0.40625000  0.40625000  0.00000000       0.008
   0.46875000  0.46875000  0.00000000       0.008
  -0.46875000  0.46875000  0.00000000       0.008
 
 position of ions in fractional coordinates (direct lattice) 
   0.66666762  0.33333238  0.50000000
   0.33333238  0.66666762  0.50000000
 
 position of ions in cartesian coordinates  (Angst):
   1.16015450 -0.71257557  7.76119687
   1.16015450  0.71257557  7.76119687
 


--------------------------------------------------------------------------------------------------------


 k-point  1 :   0.0312 0.0312 0.0000  plane waves:    2095
 k-point  2 :   0.0938 0.0312 0.0000  plane waves:    2090
 k-point  3 :   0.1563 0.0312 0.0000  plane waves:    2091
 k-point  4 :   0.2188 0.0312 0.0000  plane waves:    2089
 k-point  5 :   0.2812 0.0312 0.0000  plane waves:    2071
 k-point  6 :   0.3438 0.0313 0.0000  plane waves:    2079
 k-point  7 :   0.4062 0.0313 0.0000  plane waves:    2074
 k-point  8 :   0.4688 0.0313 0.0000  plane waves:    2064
 k-point  9 :  -0.4688 0.0312 0.0000  plane waves:    2064
 k-point 10 :  -0.4062 0.0312 0.0000  plane waves:    2065
 k-point 11 :  -0.3438 0.0312 0.0000  plane waves:    2077
 k-point 12 :  -0.2812 0.0312 0.0000  plane waves:    2084
 k-point 13 :  -0.2188 0.0312 0.0000  plane waves:    2083
 k-point 14 :  -0.1562 0.0312 0.0000  plane waves:    2104
 k-point 15 :  -0.0938 0.0312 0.0000  plane waves:    2102
 k-point 16 :  -0.0312 0.0312 0.0000  plane waves:    2102
 k-point 17 :   0.0938 0.0938 0.0000  plane waves:    2075
 k-point 18 :   0.1562 0.0938 0.0000  plane waves:    2077
 k-point 19 :   0.2188 0.0938 0.0000  plane waves:    2075
 k-point 20 :   0.2812 0.0938 0.0000  plane waves:    2074
 k-point 21 :   0.3438 0.0938 0.0000  plane waves:    2078
 k-point 22 :   0.4062 0.0938 0.0000  plane waves:    2077
 k-point 23 :   0.4688 0.0938 0.0000  plane waves:    2067
 k-point 24 :  -0.4688 0.0937 0.0000  plane waves:    2060
 k-point 25 :  -0.4062 0.0938 0.0000  plane waves:    2061
 k-point 26 :  -0.3438 0.0938 0.0000  plane waves:    2076
 k-point 27 :  -0.2812 0.0937 0.0000  plane waves:    2091
 k-point 28 :  -0.2188 0.0938 0.0000  plane waves:    2100
 k-point 29 :  -0.1563 0.0938 0.0000  plane waves:    2110
 k-point 30 :  -0.0938 0.0938 0.0000  plane waves:    2116
 k-point 31 :   0.1562 0.1562 0.0000  plane waves:    2067
 k-point 32 :   0.2188 0.1563 0.0000  plane waves:    2067
 k-point 33 :   0.2812 0.1562 0.0000  plane waves:    2071
 k-point 34 :   0.3437 0.1562 0.0000  plane waves:    2075
 k-point 35 :   0.4063 0.1563 0.0000  plane waves:    2071
 k-point 36 :   0.4688 0.1563 0.0000  plane waves:    2056
 k-point 37 :  -0.4688 0.1562 0.0000  plane waves:    2058
 k-point 38 :  -0.4062 0.1562 0.0000  plane waves:    2078
 k-point 39 :  -0.3438 0.1562 0.0000  plane waves:    2081
 k-point 40 :  -0.2812 0.1562 0.0000  plane waves:    2087
 k-point 41 :  -0.2188 0.1562 0.0000  plane waves:    2112
 k-point 42 :  -0.1562 0.1562 0.0000  plane waves:    2112
 k-point 43 :   0.2188 0.2188 0.0000  plane waves:    2058
 k-point 44 :   0.2812 0.2188 0.0000  plane waves:    2064
 k-point 45 :   0.3438 0.2188 0.0000  plane waves:    2067
 k-point 46 :   0.4062 0.2188 0.0000  plane waves:    2063
 k-point 47 :   0.4688 0.2188 0.0000  plane waves:    2058
 k-point 48 :  -0.4688 0.2187 0.0000  plane waves:    2066
 k-point 49 :  -0.4062 0.2188 0.0000  plane waves:    2081
 k-point 50 :  -0.3438 0.2188 0.0000  plane waves:    2081
 k-point 51 :  -0.2812 0.2188 0.0000  plane waves:    2092
 k-point 52 :  -0.2188 0.2188 0.0000  plane waves:    2098
 k-point 53 :   0.2813 0.2813 0.0000  plane waves:    2074
 k-point 54 :   0.3438 0.2812 0.0000  plane waves:    2062
 k-point 55 :   0.4063 0.2813 0.0000  plane waves:    2052
 k-point 56 :   0.4688 0.2813 0.0000  plane waves:    2052
 k-point 57 :  -0.4687 0.2812 0.0000  plane waves:    2062
 k-point 58 :  -0.4062 0.2812 0.0000  plane waves:    2068
 k-point 59 :  -0.3438 0.2812 0.0000  plane waves:    2073
 k-point 60 :  -0.2812 0.2812 0.0000  plane waves:    2090
 k-point 61 :   0.3438 0.3438 0.0000  plane waves:    2062
 k-point 62 :   0.4063 0.3438 0.0000  plane waves:    2056
 k-point 63 :   0.4688 0.3438 0.0000  plane waves:    2047
 k-point 64 :  -0.4688 0.3438 0.0000  plane waves:    2045
 k-point 65 :  -0.4062 0.3437 0.0000  plane waves:    2049
 k-point 66 :  -0.3438 0.3438 0.0000  plane waves:    2066
 k-point 67 :   0.4062 0.4062 0.0000  plane waves:    2052
 k-point 68 :   0.4688 0.4062 0.0000  plane waves:    2040
 k-point 69 :  -0.4688 0.4062 0.0000  plane waves:    2040
 k-point 70 :  -0.4062 0.4062 0.0000  plane waves:    2034
 k-point 71 :   0.4688 0.4688 0.0000  plane waves:    2036
 k-point 72 :  -0.4687 0.4687 0.0000  plane waves:    2034

 maximum and minimum number of plane-waves per node :       316      281

 maximum number of plane-waves:      2116
 maximum index in each direction: 
   IXMAX=    4   IYMAX=    4   IZMAX=   28
   IXMIN=   -4   IYMIN=   -4   IZMIN=  -28


 parallel 3D FFT for wavefunctions:
    minimum data exchange during FFTs selected (reduces bandwidth)
 parallel 3D FFT for charge:
    minimum data exchange during FFTs selected (reduces bandwidth)


 total amount of memory used by VASP MPI-rank0    44402. kBytes
=======================================================================

   base      :      30000. kBytes
   nonl-proj :       1373. kBytes
   fftplans  :        726. kBytes
   grid      :       1094. kBytes
   one-center:          3. kBytes
   wavefun   :      11206. kBytes
 
     INWAV:  cpu time    0.0000: real time    0.0001
 Broyden mixing: mesh for mixing (old mesh)
   NGX =  9   NGY =  9   NGZ = 57
  (NGX  = 36   NGY  = 36   NGZ  =240)
  gives a total of   4617 points

 initial charge density was supplied:
 charge density of overlapping atoms calculated
 number of electron       8.0000000 magnetization 
 keeping initial charge density in first step


--------------------------------------------------------------------------------------------------------


 Maximum index for augmentation-charges          331 (set IRDMAX)


--------------------------------------------------------------------------------------------------------


 First call to EWALD:  gamma=   0.417
 Maximum number of real-space cells 5x 5x 1
 Maximum number of reciprocal cells 2x 2x 9

    FEWALD:  cpu time    0.0010: real time    0.0015


--------------------------------------- Iteration      1(   1)  ---------------------------------------


    POTLOK:  cpu time    0.0110: real time    0.0128
    SETDIJ:  cpu time    0.0020: real time    0.0014
     EDDAV:  cpu time    3.4545: real time    3.4576
       DOS:  cpu time    0.0020: real time    0.0021
    --------------------------------------------
      LOOP:  cpu time    3.4695: real time    3.4739

 eigenvalue-minimisations  : 18432
 total energy-change (2. order) : 0.4389653E+02  (-0.1815370E+03)
 number of electron       8.0000000 magnetization 
 augmentation part        8.0000000 magnetization 

 Free energy of the ion-electron system (eV)
  ---------------------------------------------------
  alpha Z        PSCENC =         4.23309166
  Ewald energy   TEWEN  =       956.10315368
  -Hartree energ DENC   =     -1169.04228844
  -exchange      EXHF   =         0.00000000
  -V(xc)+E(xc)   XCENC  =        27.97387346
  PAW double counting   =        75.66288619      -77.96384553
  entropy T*S    EENTRO =        -0.00000000
  eigenvalues    EBANDS =       -67.36812387
  atomic energy  EATOM  =       294.29778662
  Solvation  Ediel_sol  =         0.00000000
  ---------------------------------------------------
  free energy    TOTEN  =        43.89653377 eV

  energy without entropy =       43.89653377  energy(sigma->0) =       43.89653377


--------------------------------------------------------------------------------------------------------




--------------------------------------- Iteration      1(   2)  ---------------------------------------


     EDDAV:  cpu time    3.9174: real time    3.9207
       DOS:  cpu time    0.0020: real time    0.0021
    --------------------------------------------
      LOOP:  cpu time    3.9194: real time    3.9228

 eigenvalue-minimisations  : 22256
 total energy-change (2. order) :-0.6203652E+02  (-0.5861251E+02)
 number of electron       8.0000000 magnetization 
 augmentation part        8.0000000 magnetization 

 Free energy of the ion-electron system (eV)
  ---------------------------------------------------
  alpha Z        PSCENC =         4.23309166
  Ewald energy   TEWEN  =       956.10315368
  -Hartree energ DENC   =     -1169.04228844
  -exchange      EXHF   =         0.00000000
  -V(xc)+E(xc)   XCENC  =        27.97387346
  PAW double counting   =        75.66288619      -77.96384553
  entropy T*S    EENTRO =        -0.00000000
  eigenvalues    EBANDS =      -129.40464720
  atomic energy  EATOM  =       294.29778662
  Solvation  Ediel_sol  =         0.00000000
  ---------------------------------------------------
  free energy    TOTEN  =       -18.13998957 eV

  energy without entropy =      -18.13998957  energy(sigma->0) =      -18.13998957


--------------------------------------------------------------------------------------------------------




--------------------------------------- Iteration      1(   3)  ---------------------------------------


     EDDAV:  cpu time    3.8434: real time    3.8462
       DOS:  cpu time    0.0020: real time    0.0021
    --------------------------------------------
      LOOP:  cpu time    3.8454: real time    3.8483

 eigenvalue-minimisations  : 21568
 total energy-change (2. order) :-0.1754368E+01  (-0.1739606E+01)
 number of electron       8.0000000 magnetization 
 augmentation part        8.0000000 magnetization 

 Free energy of the ion-electron system (eV)
  ---------------------------------------------------
  alpha Z        PSCENC =         4.23309166
  Ewald energy   TEWEN  =       956.10315368
  -Hartree energ DENC   =     -1169.04228844
  -exchange      EXHF   =         0.00000000
  -V(xc)+E(xc)   XCENC  =        27.97387346
  PAW double counting   =        75.66288619      -77.96384553
  entropy T*S    EENTRO =        -0.00000000
  eigenvalues    EBANDS =      -131.15901567
  atomic energy  EATOM  =       294.29778662
  Solvation  Ediel_sol  =         0.00000000
  ---------------------------------------------------
  free energy    TOTEN  =       -19.89435804 eV

  energy without entropy =      -19.89435804  energy(sigma->0) =      -19.89435804


--------------------------------------------------------------------------------------------------------




--------------------------------------- Iteration      1(   4)  ---------------------------------------


     EDDAV:  cpu time    3.7974: real time    3.8011
       DOS:  cpu time    0.0020: real time    0.0019
    --------------------------------------------
      LOOP:  cpu time    3.7994: real time    3.8030

 eigenvalue-minimisations  : 21248
 total energy-change (2. order) :-0.2761054E-02  (-0.2760752E-02)
 number of electron       8.0000000 magnetization 
 augmentation part        8.0000000 magnetization 

 Free energy of the ion-electron system (eV)
  ---------------------------------------------------
  alpha Z        PSCENC =         4.23309166
  Ewald energy   TEWEN  =       956.10315368
  -Hartree energ DENC   =     -1169.04228844
  -exchange      EXHF   =         0.00000000
  -V(xc)+E(xc)   XCENC  =        27.97387346
  PAW double counting   =        75.66288619      -77.96384553
  entropy T*S    EENTRO =        -0.00000000
  eigenvalues    EBANDS =      -131.16177673
  atomic energy  EATOM  =       294.29778662
  Solvation  Ediel_sol  =         0.00000000
  ---------------------------------------------------
  free energy    TOTEN  =       -19.89711909 eV

  energy without entropy =      -19.89711909  energy(sigma->0) =      -19.89711909


--------------------------------------------------------------------------------------------------------




--------------------------------------- Iteration      1(   5)  ---------------------------------------


     EDDAV:  cpu time    3.7634: real time    3.7664
       DOS:  cpu time    0.0020: real time    0.0021
    CHARGE:  cpu time    0.0130: real time    0.0126
    MIXING:  cpu time    0.0010: real time    0.0008
    --------------------------------------------
      LOOP:  cpu time    3.7794: real time    3.7819

 eigenvalue-minimisations  : 21048
 total energy-change (2. order) :-0.5524133E-05  (-0.5523575E-05)
 number of electron       8.0000000 magnetization 
 augmentation part        0.2317266 magnetization 

 Broyden mixing:
  rms(total) = 0.62349E+00    rms(broyden)= 0.62341E+00
  rms(prec ) = 0.71495E+00
  weight for this iteration     100.00

 Free energy of the ion-electron system (eV)
  ---------------------------------------------------
  alpha Z        PSCENC =         4.23309166
  Ewald energy   TEWEN  =       956.10315368
  -Hartree energ DENC   =     -1169.04228844
  -exchange      EXHF   =         0.00000000
  -V(xc)+E(xc)   XCENC  =        27.97387346
  PAW double counting   =        75.66288619      -77.96384553
  entropy T*S    EENTRO =        -0.00000000
  eigenvalues    EBANDS =      -131.16178225
  atomic energy  EATOM  =       294.29778662
  Solvation  Ediel_sol  =         0.00000000
  ---------------------------------------------------
  free energy    TOTEN  =       -19.89712462 eV

  energy without entropy =      -19.89712462  energy(sigma->0) =      -19.89712462


--------------------------------------------------------------------------------------------------------




--------------------------------------- Iteration      1(   6)  ---------------------------------------


    POTLOK:  cpu time    0.0080: real time    0.0082
    SETDIJ:  cpu time    0.0010: real time    0.0013
     EDDAV:  cpu time    3.9174: real time    3.9203
       DOS:  cpu time    0.0020: real time    0.0021
    CHARGE:  cpu time    0.0120: real time    0.0122
    MIXING:  cpu time    0.0010: real time    0.0005
    --------------------------------------------
      LOOP:  cpu time    3.9414: real time    3.9447

 eigenvalue-minimisations  : 22176
 total energy-change (2. order) : 0.1224206E+01  (-0.2953421E-01)
 number of electron       8.0000000 magnetization 
 augmentation part        0.2204843 magnetization 

 Broyden mixing:
  rms(total) = 0.32395E+00    rms(broyden)= 0.32394E+00
  rms(prec ) = 0.37458E+00
  weight for this iteration     100.00

 eigenvalues of (default mixing * dielectric matrix)
  average eigenvalue GAMMA=   2.0223
  2.0223

 Free energy of the ion-electron system (eV)
  ---------------------------------------------------
  alpha Z        PSCENC =         4.23309166
  Ewald energy   TEWEN  =       956.10315368
  -Hartree energ DENC   =     -1181.93094316
  -exchange      EXHF   =         0.00000000
  -V(xc)+E(xc)   XCENC  =        28.53606957
  PAW double counting   =       107.91773874     -110.44315925
  entropy T*S    EENTRO =        -0.00000000
  eigenvalues    EBANDS =      -117.38665648
  atomic energy  EATOM  =       294.29778662
  Solvation  Ediel_sol  =         0.00000000
  ---------------------------------------------------
  free energy    TOTEN  =       -18.67291861 eV

  energy without entropy =      -18.67291861  energy(sigma->0) =      -18.67291861


--------------------------------------------------------------------------------------------------------




--------------------------------------- Iteration      1(   7)  ---------------------------------------


    POTLOK:  cpu time    0.0080: real time    0.0083
    SETDIJ:  cpu time    0.0010: real time    0.0013
     EDDAV:  cpu time    3.7454: real time    3.7476
       DOS:  cpu time    0.0020: real time    0.0021
    CHARGE:  cpu time    0.0120: real time    0.0123
    MIXING:  cpu time    0.0000: real time    0.0004
    --------------------------------------------
      LOOP:  cpu time    3.7684: real time    3.7719

 eigenvalue-minimisations  : 20912
 total energy-change (2. order) : 0.4576951E+00  (-0.4047597E-01)
 number of electron       8.0000000 magnetization 
 augmentation part        0.2076561 magnetization 

 Broyden mixing:
  rms(total) = 0.54660E-01    rms(broyden)= 0.54557E-01
  rms(prec ) = 0.67501E-01
  weight for this iteration     100.00

 eigenvalues of (default mixing * dielectric matrix)
  average eigenvalue GAMMA=   2.2732
  2.2732  2.2732

 Free energy of the ion-electron system (eV)
  ---------------------------------------------------
  alpha Z        PSCENC =         4.23309166
  Ewald energy   TEWEN  =       956.10315368
  -Hartree energ DENC   =     -1198.14654193
  -exchange      EXHF   =         0.00000000
  -V(xc)+E(xc)   XCENC  =        29.22936338
  PAW double counting   =       149.65973262     -152.37992861
  entropy T*S    EENTRO =        -0.00000000
  eigenvalues    EBANDS =      -101.21188091
  atomic energy  EATOM  =       294.29778662
  Solvation  Ediel_sol  =         0.00000000
  ---------------------------------------------------
  free energy    TOTEN  =       -18.21522349 eV

  energy without entropy =      -18.21522349  energy(sigma->0) =      -18.21522349


--------------------------------------------------------------------------------------------------------




--------------------------------------- Iteration      1(   8)  ---------------------------------------


    POTLOK:  cpu time    0.0130: real time    0.0180
    SETDIJ:  cpu time    0.0010: real time    0.0013
     EDDAV:  cpu time    3.8554: real time    3.8588
       DOS:  cpu time    0.0020: real time    0.0022
    CHARGE:  cpu time    0.0120: real time    0.0122
    MIXING:  cpu time    0.0010: real time    0.0004
    --------------------------------------------
      LOOP:  cpu time    3.8844: real time    3.8929

 eigenvalue-minimisations  : 21784
 total energy-change (2. order) : 0.1207095E-01  (-0.8867264E-03)
 number of electron       8.0000000 magnetization 
 augmentation part        0.2072774 magnetization 

 Broyden mixing:
  rms(total) = 0.11711E-01    rms(broyden)= 0.11689E-01
  rms(prec ) = 0.24494E-01
  weight for this iteration     100.00

 eigenvalues of (default mixing * dielectric matrix)
  average eigenvalue GAMMA=   1.9380
  1.0813  1.9979  2.7349

 Free energy of the ion-electron system (eV)
  ---------------------------------------------------
  alpha Z        PSCENC =         4.23309166
  Ewald energy   TEWEN  =       956.10315368
  -Hartree energ DENC   =     -1201.59781661
  -exchange      EXHF   =         0.00000000
  -V(xc)+E(xc)   XCENC  =        29.26935521
  PAW double counting   =       151.88672184     -154.53508254
  entropy T*S    EENTRO =        -0.00000000
  eigenvalues    EBANDS =       -97.86036240
  atomic energy  EATOM  =       294.29778662
  Solvation  Ediel_sol  =         0.00000000
  ---------------------------------------------------
  free energy    TOTEN  =       -18.20315254 eV

  energy without entropy =      -18.20315254  energy(sigma->0) =      -18.20315254


--------------------------------------------------------------------------------------------------------




--------------------------------------- Iteration      1(   9)  ---------------------------------------


    POTLOK:  cpu time    0.0110: real time    0.0149
    SETDIJ:  cpu time    0.0010: real time    0.0013
     EDDAV:  cpu time    3.8514: real time    3.8545
       DOS:  cpu time    0.0020: real time    0.0022
    CHARGE:  cpu time    0.0120: real time    0.0123
    MIXING:  cpu time    0.0010: real time    0.0004
    --------------------------------------------
      LOOP:  cpu time    3.8784: real time    3.8855

 eigenvalue-minimisations  : 21728
 total energy-change (2. order) : 0.3178154E-02  (-0.1077042E-03)
 number of electron       8.0000000 magnetization 
 augmentation part        0.2067422 magnetization 

 Broyden mixing:
  rms(total) = 0.71933E-02    rms(broyden)= 0.71883E-02
  rms(prec ) = 0.16915E-01
  weight for this iteration     100.00

 eigenvalues of (default mixing * dielectric matrix)
  average eigenvalue GAMMA=   2.2005
  1.0655  1.9105  2.9129  2.9129

 Free energy of the ion-electron system (eV)
  ---------------------------------------------------
  alpha Z        PSCENC =         4.23309166
  Ewald energy   TEWEN  =       956.10315368
  -Hartree energ DENC   =     -1203.43613151
  -exchange      EXHF   =         0.00000000
  -V(xc)+E(xc)   XCENC  =        29.31101958
  PAW double counting   =       153.36763432     -156.01712259
  entropy T*S    EENTRO =        -0.00000000
  eigenvalues    EBANDS =       -96.05940614
  atomic energy  EATOM  =       294.29778662
  Solvation  Ediel_sol  =         0.00000000
  ---------------------------------------------------
  free energy    TOTEN  =       -18.19997438 eV

  energy without entropy =      -18.19997438  energy(sigma->0) =      -18.19997438


--------------------------------------------------------------------------------------------------------




--------------------------------------- Iteration      1(  10)  ---------------------------------------


    POTLOK:  cpu time    0.0090: real time    0.0091
    SETDIJ:  cpu time    0.0010: real time    0.0013
     EDDAV:  cpu time    3.7994: real time    3.8024
       DOS:  cpu time    0.0020: real time    0.0022
    CHARGE:  cpu time    0.0120: real time    0.0123
    MIXING:  cpu time    0.0010: real time    0.0004
    --------------------------------------------
      LOOP:  cpu time    3.8244: real time    3.8276

 eigenvalue-minimisations  : 21400
 total energy-change (2. order) : 0.8306844E-03  (-0.5048073E-04)
 number of electron       8.0000000 magnetization 
 augmentation part        0.2065377 magnetization 

 Broyden mixing:
  rms(total) = 0.33187E-02    rms(broyden)= 0.33163E-02
  rms(prec ) = 0.70953E-02
  weight for this iteration     100.00

 eigenvalues of (default mixing * dielectric matrix)
  average eigenvalue GAMMA=   2.2194
  4.1669  1.0096  2.5040  1.9365  1.4798

 Free energy of the ion-electron system (eV)
  ---------------------------------------------------
  alpha Z        PSCENC =         4.23309166
  Ewald energy   TEWEN  =       956.10315368
  -Hartree energ DENC   =     -1206.13620221
  -exchange      EXHF   =         0.00000000
  -V(xc)+E(xc)   XCENC  =        29.33192039
  PAW double counting   =       151.71851852     -154.36934523
  entropy T*S    EENTRO =        -0.00000000
  eigenvalues    EBANDS =       -93.37806713
  atomic energy  EATOM  =       294.29778662
  Solvation  Ediel_sol  =         0.00000000
  ---------------------------------------------------
  free energy    TOTEN  =       -18.19914370 eV

  energy without entropy =      -18.19914370  energy(sigma->0) =      -18.19914370


--------------------------------------------------------------------------------------------------------




--------------------------------------- Iteration      1(  11)  ---------------------------------------


    POTLOK:  cpu time    0.0080: real time    0.0086
    SETDIJ:  cpu time    0.0020: real time    0.0013
     EDDAV:  cpu time    3.8074: real time    3.8103
       DOS:  cpu time    0.0020: real time    0.0022
    CHARGE:  cpu time    0.0120: real time    0.0122
    MIXING:  cpu time    0.0000: real time    0.0004
    --------------------------------------------
      LOOP:  cpu time    3.8314: real time    3.8349

 eigenvalue-minimisations  : 21416
 total energy-change (2. order) : 0.6287659E-03  (-0.4638681E-05)
 number of electron       8.0000000 magnetization 
 augmentation part        0.2064410 magnetization 

 Broyden mixing:
  rms(total) = 0.20685E-02    rms(broyden)= 0.20679E-02
  rms(prec ) = 0.45450E-02
  weight for this iteration     100.00

 eigenvalues of (default mixing * dielectric matrix)
  average eigenvalue GAMMA=   2.4879
  5.6339  2.8729  2.4422  1.9530  1.0457  0.9797

 Free energy of the ion-electron system (eV)
  ---------------------------------------------------
  alpha Z        PSCENC =         4.23309166
  Ewald energy   TEWEN  =       956.10315368
  -Hartree energ DENC   =     -1207.15389186
  -exchange      EXHF   =         0.00000000
  -V(xc)+E(xc)   XCENC  =        29.34202049
  PAW double counting   =       152.12468708     -154.77337099
  entropy T*S    EENTRO =        -0.00000000
  eigenvalues    EBANDS =       -92.37199161
  atomic energy  EATOM  =       294.29778662
  Solvation  Ediel_sol  =         0.00000000
  ---------------------------------------------------
  free energy    TOTEN  =       -18.19851493 eV

  energy without entropy =      -18.19851493  energy(sigma->0) =      -18.19851493


--------------------------------------------------------------------------------------------------------




--------------------------------------- Iteration      1(  12)  ---------------------------------------


    POTLOK:  cpu time    0.0090: real time    0.0082
    SETDIJ:  cpu time    0.0010: real time    0.0013
     EDDAV:  cpu time    3.6574: real time    3.6610
       DOS:  cpu time    0.0020: real time    0.0022
    CHARGE:  cpu time    0.0120: real time    0.0122
    MIXING:  cpu time    0.0010: real time    0.0004
    --------------------------------------------
      LOOP:  cpu time    3.6824: real time    3.6853

 eigenvalue-minimisations  : 20224
 total energy-change (2. order) :-0.9790998E-03  (-0.7058821E-05)
 number of electron       8.0000000 magnetization 
 augmentation part        0.2064069 magnetization 

 Broyden mixing:
  rms(total) = 0.12039E-02    rms(broyden)= 0.12038E-02
  rms(prec ) = 0.23968E-02
  weight for this iteration     100.00

 eigenvalues of (default mixing * dielectric matrix)
  average eigenvalue GAMMA=   2.5580
  5.9996  3.3620  2.7113  0.9974  0.9974  2.0107  1.8277

 Free energy of the ion-electron system (eV)
  ---------------------------------------------------
  alpha Z        PSCENC =         4.23309166
  Ewald energy   TEWEN  =       956.10315368
  -Hartree energ DENC   =     -1207.65064379
  -exchange      EXHF   =         0.00000000
  -V(xc)+E(xc)   XCENC  =        29.33986264
  PAW double counting   =       152.23588874     -154.88686066
  entropy T*S    EENTRO =        -0.00000000
  eigenvalues    EBANDS =       -91.87177292
  atomic energy  EATOM  =       294.29778662
  Solvation  Ediel_sol  =         0.00000000
  ---------------------------------------------------
  free energy    TOTEN  =       -18.19949403 eV

  energy without entropy =      -18.19949403  energy(sigma->0) =      -18.19949403


--------------------------------------------------------------------------------------------------------




--------------------------------------- Iteration      1(  13)  ---------------------------------------


    POTLOK:  cpu time    0.0080: real time    0.0079
    SETDIJ:  cpu time    0.0010: real time    0.0013
     EDDAV:  cpu time    3.6854: real time    3.6892
       DOS:  cpu time    0.0020: real time    0.0022
    CHARGE:  cpu time    0.0120: real time    0.0123
    MIXING:  cpu time    0.0010: real time    0.0005
    --------------------------------------------
      LOOP:  cpu time    3.7094: real time    3.7133

 eigenvalue-minimisations  : 20384
 total energy-change (2. order) :-0.6997872E-03  (-0.4934048E-05)
 number of electron       8.0000000 magnetization 
 augmentation part        0.2064504 magnetization 

 Broyden mixing:
  rms(total) = 0.69327E-03    rms(broyden)= 0.69323E-03
  rms(prec ) = 0.12018E-02
  weight for this iteration     100.00

 eigenvalues of (default mixing * dielectric matrix)
  average eigenvalue GAMMA=   2.5543
  6.4425  4.1120  2.7036  2.2004  1.9619  1.0400  1.0400  0.9342

 Free energy of the ion-electron system (eV)
  ---------------------------------------------------
  alpha Z        PSCENC =         4.23309166
  Ewald energy   TEWEN  =       956.10315368
  -Hartree energ DENC   =     -1207.66810655
  -exchange      EXHF   =         0.00000000
  -V(xc)+E(xc)   XCENC  =        29.33579871
  PAW double counting   =       152.29849795     -154.94787782
  entropy T*S    EENTRO =        -0.00000000
  eigenvalues    EBANDS =       -91.85253808
  atomic energy  EATOM  =       294.29778662
  Solvation  Ediel_sol  =         0.00000000
  ---------------------------------------------------
  free energy    TOTEN  =       -18.20019382 eV

  energy without entropy =      -18.20019382  energy(sigma->0) =      -18.20019382


--------------------------------------------------------------------------------------------------------




--------------------------------------- Iteration      1(  14)  ---------------------------------------


    POTLOK:  cpu time    0.0080: real time    0.0079
    SETDIJ:  cpu time    0.0010: real time    0.0013
     EDDAV:  cpu time    3.7874: real time    3.7908
       DOS:  cpu time    0.0020: real time    0.0022
    CHARGE:  cpu time    0.0120: real time    0.0123
    MIXING:  cpu time    0.0010: real time    0.0005
    --------------------------------------------
      LOOP:  cpu time    3.8114: real time    3.8149

 eigenvalue-minimisations  : 21280
 total energy-change (2. order) :-0.3510970E-04  (-0.1734035E-06)
 number of electron       8.0000000 magnetization 
 augmentation part        0.2064370 magnetization 

 Broyden mixing:
  rms(total) = 0.44491E-03    rms(broyden)= 0.44491E-03
  rms(prec ) = 0.76124E-03
  weight for this iteration     100.00

 eigenvalues of (default mixing * dielectric matrix)
  average eigenvalue GAMMA=   2.8316
  7.7001  4.9874  3.1153  2.6273  1.9768  2.0853  1.0103  1.0103  0.9715

 Free energy of the ion-electron system (eV)
  ---------------------------------------------------
  alpha Z        PSCENC =         4.23309166
  Ewald energy   TEWEN  =       956.10315368
  -Hartree energ DENC   =     -1207.81537604
  -exchange      EXHF   =         0.00000000
  -V(xc)+E(xc)   XCENC  =        29.33725697
  PAW double counting   =       152.23160658     -154.88120218
  entropy T*S    EENTRO =        -0.00000000
  eigenvalues    EBANDS =       -91.70654622
  atomic energy  EATOM  =       294.29778662
  Solvation  Ediel_sol  =         0.00000000
  ---------------------------------------------------
  free energy    TOTEN  =       -18.20022893 eV

  energy without entropy =      -18.20022893  energy(sigma->0) =      -18.20022893


--------------------------------------------------------------------------------------------------------




--------------------------------------- Iteration      1(  15)  ---------------------------------------


    POTLOK:  cpu time    0.0080: real time    0.0079
    SETDIJ:  cpu time    0.0020: real time    0.0013
     EDDAV:  cpu time    3.8034: real time    3.8067
       DOS:  cpu time    0.0020: real time    0.0021
    CHARGE:  cpu time    0.0120: real time    0.0123
    MIXING:  cpu time    0.0010: real time    0.0006
    --------------------------------------------
      LOOP:  cpu time    3.8284: real time    3.8309

 eigenvalue-minimisations  : 21448
 total energy-change (2. order) :-0.1270600E-03  (-0.5348749E-06)
 number of electron       8.0000000 magnetization 
 augmentation part        0.2064229 magnetization 

 Broyden mixing:
  rms(total) = 0.15018E-03    rms(broyden)= 0.15012E-03
  rms(prec ) = 0.20573E-03
  weight for this iteration     100.00

 eigenvalues of (default mixing * dielectric matrix)
  average eigenvalue GAMMA=   2.9464
  8.2837  5.9274  3.1617  2.6494  2.2631  2.2631  1.9047  1.0087  1.0087  0.9933

 Free energy of the ion-electron system (eV)
  ---------------------------------------------------
  alpha Z        PSCENC =         4.23309166
  Ewald energy   TEWEN  =       956.10315368
  -Hartree energ DENC   =     -1207.92317278
  -exchange      EXHF   =         0.00000000
  -V(xc)+E(xc)   XCENC  =        29.33829264
  PAW double counting   =       152.17259596     -154.82255923
  entropy T*S    EENTRO =        -0.00000000
  eigenvalues    EBANDS =       -91.59954454
  atomic energy  EATOM  =       294.29778662
  Solvation  Ediel_sol  =         0.00000000
  ---------------------------------------------------
  free energy    TOTEN  =       -18.20035599 eV

  energy without entropy =      -18.20035599  energy(sigma->0) =      -18.20035599


--------------------------------------------------------------------------------------------------------




--------------------------------------- Iteration      1(  16)  ---------------------------------------


    POTLOK:  cpu time    0.0080: real time    0.0123
    SETDIJ:  cpu time    0.0020: real time    0.0017
     EDDAV:  cpu time    3.7954: real time    3.7983
       DOS:  cpu time    0.0020: real time    0.0022
    CHARGE:  cpu time    0.0120: real time    0.0123
    MIXING:  cpu time    0.0010: real time    0.0005
    --------------------------------------------
      LOOP:  cpu time    3.8204: real time    3.8273

 eigenvalue-minimisations  : 21400
 total energy-change (2. order) :-0.1665409E-04  (-0.9942928E-08)
 number of electron       8.0000000 magnetization 
 augmentation part        0.2064268 magnetization 

 Broyden mixing:
  rms(total) = 0.54749E-04    rms(broyden)= 0.54749E-04
  rms(prec ) = 0.82363E-04
  weight for this iteration     100.00

 eigenvalues of (default mixing * dielectric matrix)
  average eigenvalue GAMMA=   2.9584
  9.3923  6.0175  3.8929  2.7630  2.4976  1.9826  1.9826  1.0381  1.0381  0.9689
  0.9689

 Free energy of the ion-electron system (eV)
  ---------------------------------------------------
  alpha Z        PSCENC =         4.23309166
  Ewald energy   TEWEN  =       956.10315368
  -Hartree energ DENC   =     -1207.90424944
  -exchange      EXHF   =         0.00000000
  -V(xc)+E(xc)   XCENC  =        29.33783486
  PAW double counting   =       152.19304372     -154.84294793
  entropy T*S    EENTRO =        -0.00000000
  eigenvalues    EBANDS =       -91.61808582
  atomic energy  EATOM  =       294.29778662
  Solvation  Ediel_sol  =         0.00000000
  ---------------------------------------------------
  free energy    TOTEN  =       -18.20037264 eV

  energy without entropy =      -18.20037264  energy(sigma->0) =      -18.20037264


--------------------------------------------------------------------------------------------------------




--------------------------------------- Iteration      1(  17)  ---------------------------------------


    POTLOK:  cpu time    0.0080: real time    0.0100
    SETDIJ:  cpu time    0.0020: real time    0.0013
     EDDAV:  cpu time    3.7754: real time    3.7783
       DOS:  cpu time    0.0020: real time    0.0022
    CHARGE:  cpu time    0.0120: real time    0.0123
    MIXING:  cpu time    0.0010: real time    0.0006
    --------------------------------------------
      LOOP:  cpu time    3.8004: real time    3.8045

 eigenvalue-minimisations  : 21248
 total energy-change (2. order) :-0.4053558E-05  (-0.1518629E-08)
 number of electron       8.0000000 magnetization 
 augmentation part        0.2064236 magnetization 

 Broyden mixing:
  rms(total) = 0.22365E-04    rms(broyden)= 0.22354E-04
  rms(prec ) = 0.27302E-04
  weight for this iteration     100.00

 eigenvalues of (default mixing * dielectric matrix)
  average eigenvalue GAMMA=   3.0039
  9.6537  6.1061  4.0336  3.1579  2.6572  2.4459  1.9771  1.9958  0.9849  0.9959
  1.0192  1.0192

 Free energy of the ion-electron system (eV)
  ---------------------------------------------------
  alpha Z        PSCENC =         4.23309166
  Ewald energy   TEWEN  =       956.10315368
  -Hartree energ DENC   =     -1207.92003665
  -exchange      EXHF   =         0.00000000
  -V(xc)+E(xc)   XCENC  =        29.33806858
  PAW double counting   =       152.19805276     -154.84800634
  entropy T*S    EENTRO =        -0.00000000
  eigenvalues    EBANDS =       -91.60248702
  atomic energy  EATOM  =       294.29778662
  Solvation  Ediel_sol  =         0.00000000
  ---------------------------------------------------
  free energy    TOTEN  =       -18.20037670 eV

  energy without entropy =      -18.20037670  energy(sigma->0) =      -18.20037670


--------------------------------------------------------------------------------------------------------




--------------------------------------- Iteration      1(  18)  ---------------------------------------


    POTLOK:  cpu time    0.0080: real time    0.0091
    SETDIJ:  cpu time    0.0010: real time    0.0013
     EDDAV:  cpu time    3.6954: real time    3.6986
       DOS:  cpu time    0.0020: real time    0.0021
    --------------------------------------------
      LOOP:  cpu time    3.7064: real time    3.7112

 eigenvalue-minimisations  : 20616
 total energy-change (2. order) :-0.9789339E-06  (-0.1559591E-08)
 number of electron       8.0000000 magnetization 
 augmentation part        0.2064236 magnetization 

 Free energy of the ion-electron system (eV)
  ---------------------------------------------------
  alpha Z        PSCENC =         4.23309166
  Ewald energy   TEWEN  =       956.10315368
  -Hartree energ DENC   =     -1207.91821771
  -exchange      EXHF   =         0.00000000
  -V(xc)+E(xc)   XCENC  =        29.33802129
  PAW double counting   =       152.19837338     -154.84830531
  entropy T*S    EENTRO =        -0.00000000
  eigenvalues    EBANDS =       -91.60428128
  atomic energy  EATOM  =       294.29778662
  Solvation  Ediel_sol  =         0.00000000
  ---------------------------------------------------
  free energy    TOTEN  =       -18.20037768 eV

  energy without entropy =      -18.20037768  energy(sigma->0) =      -18.20037768


--------------------------------------------------------------------------------------------------------




 average (electrostatic) potential at core
  the test charge radii are     0.6991
  (the norm of the test charge is              1.0000)
       1 -57.2709       2 -57.2709
 
 
 
 E-fermi :  -1.9765     XC(G=0):  -2.8011     alpha+bet : -2.6077


 k-point     1 :       0.0312    0.0312    0.0000
  band No.  band energies     occupation 
      1     -22.1558      2.00000
      2     -10.1287      2.00000
      3      -5.3022      2.00000
      4      -5.0538      2.00000
      5       1.1017      0.00000
      6       1.9987      0.00000
      7       2.5130      0.00000
      8       4.2380      0.00000
      9       4.9529      0.00000
     10       6.2002      0.00000
     11       7.6903      0.00000
     12       7.8707      0.00000
     13       8.8974      0.00000
     14      10.2690      0.00000
     15      12.8450      0.00000
     16      13.1783      0.00000
     17      14.2131      0.00000
     18      19.0310      0.00000
     19      20.8641      0.00000
     20      22.1670      0.00000
     21      25.7403      0.00000
     22      26.3381      0.00000
     23      27.2927      0.00000
     24      28.8119      0.00000
     25      29.9313      0.00000
     26      31.4390      0.00000
     27      33.0205      0.00000
     28      33.1647      0.00000
     29      33.8338      0.00000
     30      34.1997      0.00000
     31      34.3499      0.00000
     32      34.6810      0.00000
     33      35.0877      0.00000
     34      35.1216      0.00000
     35      35.1450      0.00000
     36      35.2744      0.00000
     37      35.3705      0.00000
     38      35.3828      0.00000
     39      35.4154      0.00000
     40      36.8154      0.00000
     41      36.9411      0.00000
     42      37.2285      0.00000
     43      37.2554      0.00000
     44      37.4593      0.00000
     45      37.6693      0.00000
     46      37.6955      0.00000
     47      37.8378      0.00000
     48      37.9997      0.00000
     49      38.2639      0.00000
     50      39.9266      0.00000
     51      40.1037      0.00000
     52      40.3476      0.00000
     53      40.9543      0.00000
     54      40.9977      0.00000
     55      41.3106      0.00000
     56      41.4524      0.00000
     57      41.6032      0.00000
     58      41.6079      0.00000
     59      41.8444      0.00000
     60      41.9700      0.00000
     61      42.1057      0.00000
     62      42.1299      0.00000
     63      42.3517      0.00000
     64      43.8440      0.00000
     65      44.1348      0.00000
     66      44.3285      0.00000
     67      44.3521      0.00000
     68      45.2575      0.00000
     69      45.7067      0.00000
     70      45.7396      0.00000
     71      46.1196      0.00000
     72      46.6046      0.00000
     73      46.6712      0.00000
     74      46.8553      0.00000
     75      46.9502      0.00000
     76      47.7951      0.00000
     77      47.9377      0.00000
     78      48.0223      0.00000
     79      48.0804      0.00000
     80      48.7008      0.00000
     81      48.8538      0.00000
     82      50.1841      0.00000
     83      51.1607      0.00000
     84      51.6263      0.00000
     85      52.7122      0.00000
     86      52.7743      0.00000
     87      53.0796      0.00000
     88      53.1528      0.00000
     89      53.3138      0.00000
     90      53.8231      0.00000
     91      53.8310      0.00000
     92      53.8809      0.00000
     93      54.4951      0.00000
     94      55.0502      0.00000
     95      56.0331      0.00000
     96      57.8858      0.00000
     97      58.2867      0.00000
     98      59.7184      0.00000
     99      59.9633      0.00000
    100      60.2795      0.00000
    101      60.3321      0.00000
    102      60.5588      0.00000
    103      61.2353      0.00000
    104      61.4092      0.00000
    105      61.6137      0.00000
    106      61.8279      0.00000
    107      62.0012      0.00000
    108      62.2496      0.00000
    109      62.4668      0.00000
    110      66.5021      0.00000
    111      67.6805      0.00000
    112      67.6884      0.00000
    113      68.6531      0.00000
    114      68.9397      0.00000
    115      69.3881      0.00000
    116      70.0199      0.00000
    117      70.3317      0.00000
    118      70.4093      0.00000
    119      70.7964      0.00000
    120      71.0597      0.00000
    121      71.1030      0.00000
    122      72.7820      0.00000
    123      73.0126      0.00000
    124      73.1621      0.00000
    125      74.6502      0.00000
    126      75.8623      0.00000
    127      76.8307      0.00000
    128      77.4043      0.00000

 k-point     2 :       0.0938    0.0312    0.0000
  band No.  band energies     occupation 
      1     -21.9006      2.00000
      2      -9.8166      2.00000
      3      -5.9881      2.00000
      4      -5.7395      2.00000
      5       1.4521      0.00000
      6       2.3525      0.00000
      7       2.8700      0.00000
      8       4.5905      0.00000
      9       5.3012      0.00000
     10       6.7847      0.00000
     11       7.8462      0.00000
     12       8.2155      0.00000
     13       9.2543      0.00000
     14       9.4469      0.00000
     15      13.1727      0.00000
     16      13.7845      0.00000
     17      14.5641      0.00000
     18      19.2919      0.00000
     19      21.2167      0.00000
     20      23.0797      0.00000
     21      24.5960      0.00000
     22      25.0853      0.00000
     23      26.6516      0.00000
     24      29.1418      0.00000
     25      29.4548      0.00000
     26      29.5235      0.00000
     27      30.8488      0.00000
     28      30.9834      0.00000
     29      31.2021      0.00000
     30      32.2951      0.00000
     31      32.5422      0.00000
     32      33.0216      0.00000
     33      33.0513      0.00000
     34      33.3361      0.00000
     35      33.3668      0.00000
     36      33.7066      0.00000
     37      34.2528      0.00000
     38      35.0425      0.00000
     39      35.2702      0.00000
     40      35.8030      0.00000
     41      35.9543      0.00000
     42      36.1026      0.00000
     43      36.4137      0.00000
     44      37.1709      0.00000
     45      37.2742      0.00000
     46      37.6729      0.00000
     47      37.8030      0.00000
     48      38.2864      0.00000
     49      39.0464      0.00000
     50      39.0721      0.00000
     51      39.6109      0.00000
     52      39.8407      0.00000
     53      39.8989      0.00000
     54      40.0395      0.00000
     55      40.4346      0.00000
     56      41.9674      0.00000
     57      42.1658      0.00000
     58      42.8457      0.00000
     59      43.5702      0.00000
     60      43.9754      0.00000
     61      44.0843      0.00000
     62      44.1177      0.00000
     63      44.2954      0.00000
     64      44.6225      0.00000
     65      44.8939      0.00000
     66      45.0436      0.00000
     67      45.7042      0.00000
     68      46.5458      0.00000
     69      46.6995      0.00000
     70      46.7995      0.00000
     71      46.8758      0.00000
     72      47.5888      0.00000
     73      47.5994      0.00000
     74      48.2346      0.00000
     75      48.5517      0.00000
     76      48.9799      0.00000
     77      49.0897      0.00000
     78      49.1924      0.00000
     79      49.5257      0.00000
     80      49.9306      0.00000
     81      50.6625      0.00000
     82      50.8311      0.00000
     83      51.1222      0.00000
     84      51.2181      0.00000
     85      51.7584      0.00000
     86      52.4770      0.00000
     87      52.8497      0.00000
     88      52.9968      0.00000
     89      54.2246      0.00000
     90      54.7765      0.00000
     91      56.1492      0.00000
     92      56.2114      0.00000
     93      56.6766      0.00000
     94      56.7090      0.00000
     95      57.0149      0.00000
     96      57.4507      0.00000
     97      58.6977      0.00000
     98      59.1410      0.00000
     99      59.3503      0.00000
    100      59.4424      0.00000
    101      59.9701      0.00000
    102      59.9915      0.00000
    103      60.8209      0.00000
    104      62.4599      0.00000
    105      63.2356      0.00000
    106      63.4899      0.00000
    107      63.8182      0.00000
    108      64.9122      0.00000
    109      65.5115      0.00000
    110      65.5752      0.00000
    111      66.5673      0.00000
    112      67.2510      0.00000
    113      68.1260      0.00000
    114      68.6563      0.00000
    115      69.0533      0.00000
    116      69.8572      0.00000
    117      70.4885      0.00000
    118      71.2537      0.00000
    119      71.7086      0.00000
    120      72.2342      0.00000
    121      72.3703      0.00000
    122      73.0668      0.00000
    123      73.8195      0.00000
    124      73.8855      0.00000
    125      75.2890      0.00000
    126      75.7140      0.00000
    127      76.8684      0.00000
    128      77.5782      0.00000

 k-point     3 :       0.1563    0.0312    0.0000
  band No.  band energies     occupation 
      1     -21.4465      2.00000
      2      -9.2642      2.00000
      3      -7.3464      2.00000
      4      -6.4489      2.00000
      5       2.0769      0.00000
      6       2.9831      0.00000
      7       3.5073      0.00000
      8       5.2182      0.00000
      9       5.9147      0.00000
     10       6.7891      0.00000
     11       8.1009      0.00000
     12       8.8286      0.00000
     13       9.0771      0.00000
     14       9.8793      0.00000
     15      13.7415      0.00000
     16      14.7505      0.00000
     17      15.1867      0.00000
     18      19.5748      0.00000
     19      21.8112      0.00000
     20      22.5218      0.00000
     21      23.6183      0.00000
     22      24.0927      0.00000
     23      26.1341      0.00000
     24      26.6407      0.00000
     25      27.2145      0.00000
     26      27.6411      0.00000
     27      29.3721      0.00000
     28      29.4579      0.00000
     29      29.6655      0.00000
     30      29.7382      0.00000
     31      29.7993      0.00000
     32      30.8528      0.00000
     33      31.3578      0.00000
     34      31.3952      0.00000
     35      32.1614      0.00000
     36      32.2777      0.00000
     37      33.1177      0.00000
     38      33.3951      0.00000
     39      33.5317      0.00000
     40      33.6404      0.00000
     41      34.2183      0.00000
     42      34.7310      0.00000
     43      36.3446      0.00000
     44      36.6643      0.00000
     45      37.3299      0.00000
     46      37.6968      0.00000
     47      38.0680      0.00000
     48      38.5686      0.00000
     49      38.7375      0.00000
     50      38.8292      0.00000
     51      39.1943      0.00000
     52      39.2508      0.00000
     53      40.4027      0.00000
     54      40.4455      0.00000
     55      42.0008      0.00000
     56      42.3335      0.00000
     57      42.5090      0.00000
     58      42.8012      0.00000
     59      43.4507      0.00000
     60      43.8305      0.00000
     61      44.1107      0.00000
     62      44.6961      0.00000
     63      44.8621      0.00000
     64      45.1324      0.00000
     65      46.4307      0.00000
     66      46.5322      0.00000
     67      47.2723      0.00000
     68      47.6122      0.00000
     69      47.8051      0.00000
     70      48.0023      0.00000
     71      48.3307      0.00000
     72      49.0503      0.00000
     73      49.3484      0.00000
     74      49.8212      0.00000
     75      49.8847      0.00000
     76      50.4911      0.00000
     77      50.5714      0.00000
     78      50.8130      0.00000
     79      51.5749      0.00000
     80      51.8100      0.00000
     81      52.1846      0.00000
     82      52.2712      0.00000
     83      52.6349      0.00000
     84      52.7391      0.00000
     85      53.5730      0.00000
     86      53.8936      0.00000
     87      54.3632      0.00000
     88      54.4420      0.00000
     89      55.3552      0.00000
     90      56.0277      0.00000
     91      57.2565      0.00000
     92      57.5529      0.00000
     93      57.7461      0.00000
     94      58.0389      0.00000
     95      58.3618      0.00000
     96      58.6136      0.00000
     97      59.1736      0.00000
     98      59.2279      0.00000
     99      60.0657      0.00000
    100      60.3600      0.00000
    101      61.2069      0.00000
    102      61.8594      0.00000
    103      62.6510      0.00000
    104      63.3259      0.00000
    105      63.8390      0.00000
    106      65.1206      0.00000
    107      65.7339      0.00000
    108      65.9125      0.00000
    109      66.2095      0.00000
    110      66.4033      0.00000
    111      66.6557      0.00000
    112      67.2532      0.00000
    113      67.3742      0.00000
    114      68.4655      0.00000
    115      69.8392      0.00000
    116      70.3395      0.00000
[...]
     12      11.9482      0.00000
     13      12.8135      0.00000
     14      13.2245      0.00000
     15      13.8980      0.00000
     16      14.0180      0.00000
     17      15.2592      0.00000
     18      15.8361      0.00000
     19      17.1056      0.00000
     20      17.5227      0.00000
     21      18.5599      0.00000
     22      18.6339      0.00000
     23      19.2027      0.00000
     24      21.1348      0.00000
     25      21.4689      0.00000
     26      22.3027      0.00000
     27      24.1935      0.00000
     28      24.5487      0.00000
     29      26.1856      0.00000
     30      26.2115      0.00000
     31      28.1534      0.00000
     32      28.3384      0.00000
     33      29.5019      0.00000
     34      29.7576      0.00000
     35      30.4819      0.00000
     36      30.5225      0.00000
     37      30.7241      0.00000
     38      30.9295      0.00000
     39      31.9846      0.00000
     40      32.5227      0.00000
     41      32.8035      0.00000
     42      32.8272      0.00000
     43      33.1989      0.00000
     44      33.5276      0.00000
     45      34.5801      0.00000
     46      35.7074      0.00000
     47      35.7629      0.00000
     48      36.7084      0.00000
     49      37.1787      0.00000
     50      37.9481      0.00000
     51      38.4495      0.00000
     52      40.3799      0.00000
     53      40.5949      0.00000
     54      41.9863      0.00000
     55      42.0161      0.00000
     56      42.0323      0.00000
     57      42.1204      0.00000
     58      43.3421      0.00000
     59      44.7022      0.00000
     60      46.4581      0.00000
     61      47.7810      0.00000
     62      48.3360      0.00000
     63      48.3949      0.00000
     64      48.9577      0.00000
     65      49.1854      0.00000
     66      49.6525      0.00000
     67      49.7583      0.00000
     68      51.9885      0.00000
     69      54.2161      0.00000
     70      54.3495      0.00000
     71      55.0877      0.00000
     72      55.1673      0.00000
     73      56.3036      0.00000
     74      56.4441      0.00000
     75      56.5206      0.00000
     76      56.6450      0.00000
     77      57.2779      0.00000
     78      57.3091      0.00000
     79      57.4571      0.00000
     80      57.6055      0.00000
     81      58.4392      0.00000
     82      58.6258      0.00000
     83      59.3945      0.00000
     84      59.5697      0.00000
     85      59.7660      0.00000
     86      59.8881      0.00000
     87      60.3145      0.00000
     88      60.6173      0.00000
     89      61.7140      0.00000
     90      62.9151      0.00000
     91      63.0285      0.00000
     92      63.5159      0.00000
     93      63.8646      0.00000
     94      64.1179      0.00000
     95      65.0641      0.00000
     96      65.5379      0.00000
     97      65.5528      0.00000
     98      65.7856      0.00000
     99      65.8991      0.00000
    100      66.5201      0.00000
    101      66.8291      0.00000
    102      67.2732      0.00000
    103      67.5611      0.00000
    104      67.8517      0.00000
    105      68.3453      0.00000
    106      68.5307      0.00000
    107      68.8441      0.00000
    108      69.0879      0.00000
    109      69.2550      0.00000
    110      69.6130      0.00000
    111      69.6196      0.00000
    112      69.7178      0.00000
    113      69.7557      0.00000
    114      70.0472      0.00000
    115      70.5386      0.00000
    116      70.9909      0.00000
    117      71.3851      0.00000
    118      71.7300      0.00000
    119      71.9279      0.00000
    120      72.0266      0.00000
    121      72.9435      0.00000
    122      73.1216      0.00000
    123      73.6203      0.00000
    124      74.0535      0.00000
    125      74.6288      0.00000
    126      74.9319      0.00000
    127      75.0313      0.00000
    128      75.3464      0.00000

 k-point    71 :       0.4688    0.4688    0.0000
  band No.  band energies     occupation 
      1     -17.0953      2.00000
      2     -15.7663      2.00000
      3      -8.0634      2.00000
      4      -4.8647      2.00000
      5      -0.4583      0.00000
      6       8.3822      0.00000
      7       8.9027      0.00000
      8       9.1503      0.00000
      9      10.0003      0.00000
     10      10.0799      0.00000
     11      10.6941      0.00000
     12      10.7295      0.00000
     13      12.0802      0.00000
     14      12.3424      0.00000
     15      12.8821      0.00000
     16      13.0015      0.00000
     17      14.8154      0.00000
     18      15.9087      0.00000
     19      16.3881      0.00000
     20      16.6881      0.00000
     21      18.1026      0.00000
     22      18.6685      0.00000
     23      20.7153      0.00000
     24      20.8765      0.00000
     25      21.3526      0.00000
     26      21.7720      0.00000
     27      23.5040      0.00000
     28      24.2271      0.00000
     29      25.0911      0.00000
     30      25.7683      0.00000
     31      26.7217      0.00000
     32      26.9471      0.00000
     33      27.1316      0.00000
     34      28.6501      0.00000
     35      29.1312      0.00000
     36      29.3411      0.00000
     37      29.5137      0.00000
     38      30.3581      0.00000
     39      31.8423      0.00000
     40      32.4575      0.00000
     41      33.1746      0.00000
     42      33.6410      0.00000
     43      33.9317      0.00000
     44      34.5813      0.00000
     45      35.4344      0.00000
     46      35.5601      0.00000
     47      36.6884      0.00000
     48      36.7376      0.00000
     49      37.0490      0.00000
     50      38.0268      0.00000
     51      38.1785      0.00000
     52      38.7613      0.00000
     53      39.7092      0.00000
     54      40.3051      0.00000
     55      42.6857      0.00000
     56      42.9791      0.00000
     57      44.9489      0.00000
     58      45.1421      0.00000
     59      45.3240      0.00000
     60      45.9175      0.00000
     61      46.4915      0.00000
     62      46.8719      0.00000
     63      48.7701      0.00000
     64      48.9234      0.00000
     65      49.1728      0.00000
     66      51.2346      0.00000
     67      51.8489      0.00000
     68      52.1094      0.00000
     69      53.1996      0.00000
     70      54.3167      0.00000
     71      55.0120      0.00000
     72      56.0450      0.00000
     73      56.5539      0.00000
     74      56.9689      0.00000
     75      57.2899      0.00000
     76      57.3726      0.00000
     77      58.1782      0.00000
     78      58.4535      0.00000
     79      59.6248      0.00000
     80      59.7272      0.00000
     81      59.7935      0.00000
     82      59.8590      0.00000
     83      59.9527      0.00000
     84      60.4329      0.00000
     85      61.2991      0.00000
     86      61.8058      0.00000
     87      61.8466      0.00000
     88      61.9810      0.00000
     89      62.3517      0.00000
     90      62.8179      0.00000
     91      63.9799      0.00000
     92      64.7974      0.00000
     93      64.9278      0.00000
     94      65.1881      0.00000
     95      65.8717      0.00000
     96      66.1350      0.00000
     97      66.3095      0.00000
     98      66.3734      0.00000
     99      66.6414      0.00000
    100      66.7931      0.00000
    101      66.8180      0.00000
    102      66.9067      0.00000
    103      67.9394      0.00000
    104      68.0920      0.00000
    105      68.4240      0.00000
    106      68.6227      0.00000
    107      68.6553      0.00000
    108      68.7498      0.00000
    109      69.2433      0.00000
    110      69.3707      0.00000
    111      69.5978      0.00000
    112      69.7525      0.00000
    113      70.5444      0.00000
    114      71.0198      0.00000
    115      71.1150      0.00000
    116      71.2339      0.00000
    117      71.7231      0.00000
    118      72.5076      0.00000
    119      72.7145      0.00000
    120      72.7295      0.00000
    121      73.0255      0.00000
    122      73.0859      0.00000
    123      74.0974      0.00000
    124      74.5963      0.00000
    125      75.2858      0.00000
    126      76.1388      0.00000
    127      76.2252      0.00000
    128      76.4154      0.00000

 k-point    72 :      -0.4687    0.4687    0.0000
  band No.  band energies     occupation 
      1     -17.4361      2.00000
      2     -15.5275      2.00000
      3      -7.6935      2.00000
      4      -5.1014      2.00000
      5      -0.2824      0.00000
      6       7.8161      0.00000
      7       8.1118      0.00000
      8       9.0062      0.00000
      9       9.6161      0.00000
     10       9.9108      0.00000
     11      10.9621      0.00000
     12      11.2105      0.00000
     13      11.6465      0.00000
     14      11.9133      0.00000
     15      13.1294      0.00000
     16      13.8307      0.00000
     17      14.4958      0.00000
     18      15.6394      0.00000
     19      16.2819      0.00000
     20      17.3504      0.00000
     21      18.5293      0.00000
     22      18.7590      0.00000
     23      20.1330      0.00000
     24      20.7486      0.00000
     25      21.2588      0.00000
     26      22.0533      0.00000
     27      23.3080      0.00000
     28      23.6785      0.00000
     29      25.9358      0.00000
     30      26.7429      0.00000
     31      28.0028      0.00000
     32      28.7906      0.00000
     33      28.7908      0.00000
     34      29.2083      0.00000
     35      30.2135      0.00000
     36      30.2259      0.00000
     37      30.2526      0.00000
     38      30.4294      0.00000
     39      31.0061      0.00000
     40      32.0028      0.00000
     41      32.1773      0.00000
     42      32.5482      0.00000
     43      32.9526      0.00000
     44      34.1786      0.00000
     45      34.9956      0.00000
     46      35.1935      0.00000
     47      36.2173      0.00000
     48      36.4555      0.00000
     49      36.9015      0.00000
     50      37.1431      0.00000
     51      37.4685      0.00000
     52      38.4424      0.00000
     53      40.3915      0.00000
     54      41.7145      0.00000
     55      41.7422      0.00000
     56      42.0720      0.00000
     57      42.5651      0.00000
     58      45.0763      0.00000
     59      45.1250      0.00000
     60      47.3530      0.00000
     61      47.4167      0.00000
     62      48.0344      0.00000
     63      48.1448      0.00000
     64      48.3085      0.00000
     65      49.1210      0.00000
     66      49.2716      0.00000
     67      52.0400      0.00000
     68      53.1110      0.00000
     69      53.3078      0.00000
     70      55.5343      0.00000
     71      55.7205      0.00000
     72      55.8821      0.00000
     73      55.8883      0.00000
     74      56.1073      0.00000
     75      57.6969      0.00000
     76      57.7104      0.00000
     77      57.9195      0.00000
     78      58.0499      0.00000
     79      58.8756      0.00000
     80      59.8766      0.00000
     81      60.6194      0.00000
     82      61.0827      0.00000
     83      61.1181      0.00000
     84      61.2374      0.00000
     85      62.3358      0.00000
     86      62.4833      0.00000
     87      63.1436      0.00000
     88      63.3535      0.00000
     89      63.4302      0.00000
     90      63.5159      0.00000
     91      64.1149      0.00000
     92      64.8952      0.00000
     93      64.9857      0.00000
     94      65.1566      0.00000
     95      65.2772      0.00000
     96      65.3128      0.00000
     97      65.4923      0.00000
     98      65.6390      0.00000
     99      65.7638      0.00000
    100      66.4294      0.00000
    101      66.4480      0.00000
    102      66.9738      0.00000
    103      67.2872      0.00000
    104      67.3520      0.00000
    105      67.5244      0.00000
    106      67.6361      0.00000
    107      67.6492      0.00000
    108      67.8957      0.00000
    109      68.0060      0.00000
    110      68.6568      0.00000
    111      69.6208      0.00000
    112      70.0105      0.00000
    113      70.1073      0.00000
    114      71.1468      0.00000
    115      71.4759      0.00000
    116      71.5797      0.00000
    117      71.9142      0.00000
    118      72.0621      0.00000
    119      72.3281      0.00000
    120      72.6812      0.00000
    121      72.8367      0.00000
    122      73.2994      0.00000
    123      73.4579      0.00000
    124      74.0886      0.00000
    125      74.5491      0.00000
    126      75.2405      0.00000
    127      75.4153      0.00000
    128      75.6692      0.00000


--------------------------------------------------------------------------------------------------------


 soft charge-density along one line, spin component           1
         0         1         2         3         4         5         6         7         8         9
 total charge-density along one line
 
 pseudopotential strength for first ion, spin component:           1
 10.182   0.017  -0.000  -0.000  -0.000   0.000   0.000   0.000
  0.017  -0.002  -0.000   0.000   0.000   0.000   0.000   0.000
 -0.000  -0.000  -4.292  -0.000  -0.000  -0.022  -0.000  -0.000
 -0.000   0.000  -0.000  -4.282   0.000  -0.000  -0.018   0.000
 -0.000   0.000  -0.000   0.000  -4.291  -0.000   0.000  -0.022
  0.000   0.000  -0.022  -0.000  -0.000  -0.771  -0.000  -0.000
  0.000   0.000  -0.000  -0.018   0.000  -0.000  -0.771   0.000
  0.000   0.000  -0.000   0.000  -0.022  -0.000   0.000  -0.771
 total augmentation occupancy for first ion, spin component:           1
  1.496  -1.236  -0.022   0.000   0.000  -0.010   0.000  -0.000
 -1.236   1.250   0.041   0.000   0.000   0.016  -0.000  -0.000
 -0.022   0.041   1.262   0.000   0.000   0.243   0.000   0.000
  0.000   0.000   0.000   0.946   0.000   0.000   0.112   0.000
  0.000   0.000   0.000   0.000   1.329   0.000   0.000   0.240
 -0.010   0.016   0.243   0.000   0.000   0.053   0.000  -0.000
  0.000  -0.000   0.000   0.112   0.000   0.000   0.015   0.000
 -0.000  -0.000   0.000   0.000   0.240  -0.000   0.000   0.051


------------------------ aborting loop because EDIFF is reached ----------------------------------------


    CHARGE:  cpu time    0.0130: real time    0.0128
    FORLOC:  cpu time    0.0010: real time    0.0003
    FORNL :  cpu time    0.1140: real time    0.1142
    STRESS:  cpu time    0.2130: real time    0.2127
    FORHAR:  cpu time    0.0020: real time    0.0020
    MIXING:  cpu time    0.0000: real time    0.0003
    OFIELD:  cpu time    0.0000: real time    0.0000

  FORCE on cell =-STRESS in cart. coord.  units (eV):
  Direction    XX          YY          ZZ          XY          YZ          ZX
  --------------------------------------------------------------------------------------
  Alpha Z     4.23309     4.23309     4.23309
  Ewald    1232.99610  1232.95872 -1510.07265    -0.00000    -0.00000     0.00000
  Hartree  1197.47577  1196.65814 -1186.39471     0.00000     0.00000    -0.00000
  E(xc)     -29.73757   -29.69703   -30.91400     0.00000     0.00000    -0.00000
  Local   -2516.28456 -2515.34426  2590.95448    -0.00000     0.00000     0.00000
  n-local    -8.33745    -7.36158    -6.85293     0.40485     0.00000    -0.00000
  augment    -0.87348    -0.87490    -0.77435     0.00000     0.00000    -0.00000
  Kinetic   128.18446   120.87173   139.80856    -2.89896    -0.00000    -0.00000
  Fock        0.00000     0.00000     0.00000     0.00000     0.00000     0.00000
  -------------------------------------------------------------------------------------
  Total       7.65636     1.44392    -0.01251     0.00000     0.00000     0.00000
  in kB     159.32306    30.04687    -0.26030     0.00000     0.00000     0.00000
  external pressure =       63.04 kB  Pullay stress =        0.00 kB


 VOLUME and BASIS-vectors are now :
 -----------------------------------------------------------------------------
  energy-cutoff  :      520.00
  volume of cell :       76.99
      direct lattice vectors                 reciprocal lattice vectors
     1.160154497 -2.137714457  0.000000000     0.430977082 -0.233894662  0.000000000
     1.160154497  2.137714457  0.000000000     0.430977082  0.233894662  0.000000000
     0.000000000  0.000000000 15.522393743     0.000000000  0.000000000  0.064423053

  length of vectors
     2.432237973  2.432237973 15.522393743     0.490354931  0.490354931  0.064423053


 FORCES acting on ions
    electron-ion (+dipol)            ewald-force                    non-local-force                 convergence-correction
 -----------------------------------------------------------------------------------------------
   0.728E-13 -.107E+02 0.912E-11   0.266E-14 0.109E+02 -.953E-21   0.000E+00 -.202E+00 0.000E+00   -.423E-15 -.226E-03 -.133E-11
   -.161E-11 0.107E+02 -.188E-11   -.120E-13 -.109E+02 0.953E-21   0.555E-16 0.202E+00 0.000E+00   0.316E-14 0.226E-03 -.133E-11
 -----------------------------------------------------------------------------------------------
   -.154E-11 0.278E-11 0.724E-11   -.935E-14 0.355E-14 0.000E+00   0.555E-16 0.111E-15 0.000E+00   0.273E-14 0.241E-14 -.266E-11
 
 
 POSITION                                       TOTAL-FORCE (eV/Angst)
 -----------------------------------------------------------------------------------
      1.16015     -0.70382      7.76120         0.000000      0.000171      0.000000
      1.16015      0.70382      7.76120         0.000000     -0.000171     -0.000000
 -----------------------------------------------------------------------------------
    total drift:                               -0.000000      0.000000      0.000000


--------------------------------------------------------------------------------------------------------



  FREE ENERGIE OF THE ION-ELECTRON SYSTEM (eV)
  ---------------------------------------------------
  free  energy   TOTEN  =       -18.21022255 eV

  energy  without entropy=      -18.21022255  energy(sigma->0) =      -18.21022255
 
 d Force = 0.5317223E-03[-0.690E-06, 0.106E-02]  d Energy = 0.5319850E-03-0.263E-06
 d Force =-0.4235292E-01[-0.440E-01,-0.407E-01]  d Ewald  =-0.4235648E-01 0.356E-05


--------------------------------------------------------------------------------------------------------


    POTLOK:  cpu time    0.0090: real time    0.0087


--------------------------------------------------------------------------------------------------------




--------------------------------------------------------------------------------------------------------


  
 reached required accuracy - stopping structural energy minimisation
     LOOP+:  cpu time   15.2407: real time   15.2622
    4ORBIT:  cpu time    0.0000: real time    0.0000

 total amount of memory used by VASP MPI-rank0    44402. kBytes
=======================================================================

   base      :      30000. kBytes
   nonl-proj :       1373. kBytes
   fftplans  :        726. kBytes
   grid      :       1094. kBytes
   one-center:          3. kBytes
   wavefun   :      11206. kBytes
 
  
  
 General timing and accounting informations for this job:
 ========================================================
  
                  Total CPU time used (sec):      105.540
                            User time (sec):      104.596
                          System time (sec):        0.944
                         Elapsed time (sec):      105.544
  
                   Maximum memory used (kb):       75420.
                   Average memory used (kb):           0.
  
                          Minor page faults:        12558
                          Major page faults:            2
                 Voluntary context switches:          341
