<?xml version="1.0" encoding="ISO-8859-1"?>
<modeling>
 <generator>
  <i name="program" type="string">vasp </i>
  <i name="version" type="string">5.4.4.18Apr17-6-g9f103f2a35  </i>
  <i name="subversion" type="string">(build Nov 22 2017 20:28:56) complex            parallel </i>
  <i name="platform" type="string">LinuxIFC </i>
  <i name="date" type="string">2019 10 06 </i>
  <i name="time" type="string">19:55:27 </i>
 </generator>
 <incar>
  <i type="int" name="ISTART">     0</i>
  <i type="string" name="PREC">accurate</i>
  <i type="int" name="IALGO">    48</i>
  <i type="string" name="ALGO"> Normal</i>
  <i type="int" name="NSIM">     4</i>
  <i type="int" name="IBRION">     2</i>
  <i name="EDIFF">      0.00000100</i>
  <i type="int" name="NSW">    50</i>
  <i type="int" name="ISIF">     2</i>
  <i type="int" name="ISYM">     2</i>
  <i name="ENCUT">    520.00000000</i>
  <i type="int" name="NBANDS">   128</i>
  <i name="POTIM">      0.10000000</i>
  <i type="logical" name="LPLANE"> T  </i>
  <i type="int" name="ISMEAR">     0</i>
  <i name="SIGMA">      0.10000000</i>
  <i type="logical" name="LWAVE"> F  </i>
  <i type="logical" name="LCHARG"> F  </i>
  <v type="int" name="KPOINT_BSE">    -1     0     0     0</v>
 </incar>
 <structure name="primitive_cell" >
  <crystal>
   <varray name="basis" >
    <v>       1.16015450      -2.13771446       0.00000000 </v>
    <v>       1.16015450       2.13771446       0.00000000 </v>
    <v>       0.00000000       0.00000000      15.52239374 </v>
   </varray>
   <i name="volume">     76.99352677 </i>
   <varray name="rec_basis" >
    <v>       0.43097708      -0.23389466       0.00000000 </v>
    <v>       0.43097708       0.23389466       0.00000000 </v>
    <v>       0.00000000       0.00000000       0.06442305 </v>
   </varray>
  </crystal>
  <varray name="positions" >
   <v>      -0.33333238       0.33333238      -0.50000000 </v>
   <v>       0.33333238      -0.33333238      -0.50000000 </v>
  </varray>
 </structure>
 <varray name="primitive_index" >
  <v type="int" >        1 </v>
  <v type="int" >        2 </v>
 </varray>
 <kpoints>
  <generation param="Monkhorst-Pack">
   <v type="int" name="divisions">      16       16        1 </v>
   <v name="usershift">      0.00000000       0.00000000       0.00000000 </v>
   <v name="genvec1">      0.06250000       0.00000000       0.00000000 </v>
   <v name="genvec2">      0.00000000       0.06250000       0.00000000 </v>
   <v name="genvec3">      0.00000000       0.00000000       1.00000000 </v>
   <v name="shift">      0.50000000       0.50000000       0.00000000 </v>
  </generation>
  <varray name="kpointlist" >
   <v>       0.03125000       0.03125000       0.00000000 </v>
   <v>       0.09375000       0.03125000       0.00000000 </v>
   <v>       0.15625000       0.03125000       0.00000000 </v>
   <v>       0.21875000       0.03125000       0.00000000 </v>
   <v>       0.28125000       0.03125000       0.00000000 </v>
   <v>       0.34375000       0.03125000       0.00000000 </v>
   <v>       0.40625000       0.03125000       0.00000000 </v>
   <v>       0.46875000       0.03125000       0.00000000 </v>
   <v>      -0.46875000       0.03125000       0.00000000 </v>
   <v>      -0.40625000       0.03125000       0.00000000 </v>
   <v>      -0.34375000       0.03125000       0.00000000 </v>
   <v>      -0.28125000       0.03125000       0.00000000 </v>
   <v>      -0.21875000       0.03125000       0.00000000 </v>
   <v>      -0.15625000       0.03125000       0.00000000 </v>
   <v>      -0.09375000       0.03125000       0.00000000 </v>
   <v>      -0.03125000       0.03125000       0.00000000 </v>
   <v>       0.09375000       0.09375000       0.00000000 </v>
   <v>       0.15625000       0.09375000       0.00000000 </v>
   <v>       0.21875000       0.09375000       0.00000000 </v>
   <v>       0.28125000       0.09375000       0.00000000 </v>
   <v>       0.34375000       0.09375000       0.00000000 </v>
   <v>       0.40625000       0.09375000       0.00000000 </v>
   <v>       0.46875000       0.09375000       0.00000000 </v>
   <v>      -0.46875000       0.09375000       0.00000000 </v>
   <v>      -0.40625000       0.09375000       0.00000000 </v>
   <v>      -0.34375000       0.09375000       0.00000000 </v>
   <v>      -0.28125000       0.09375000       0.00000000 </v>
   <v>      -0.21875000       0.09375000       0.00000000 </v>
   <v>      -0.15625000       0.09375000       0.00000000 </v>
   <v>      -0.09375000       0.09375000       0.00000000 </v>
   <v>       0.15625000       0.15625000       0.00000000 </v>
   <v>       0.21875000       0.15625000       0.00000000 </v>
   <v>       0.28125000       0.15625000       0.00000000 </v>
   <v>       0.34375000       0.15625000       0.00000000 </v>
   <v>       0.40625000       0.15625000       0.00000000 </v>
   <v>       0.46875000       0.15625000       0.00000000 </v>
   <v>      -0.46875000       0.15625000       0.00000000 </v>
   <v>      -0.40625000       0.15625000       0.00000000 </v>
   <v>      -0.34375000       0.15625000       0.00000000 </v>
   <v>      -0.28125000       0.15625000       0.00000000 </v>
   <v>      -0.21875000       0.15625000       0.00000000 </v>
   <v>      -0.15625000       0.15625000       0.00000000 </v>
   <v>       0.21875000       0.21875000       0.00000000 </v>
   <v>       0.28125000       0.21875000       0.00000000 </v>
   <v>       0.34375000       0.21875000       0.00000000 </v>
   <v>       0.40625000       0.21875000       0.00000000 </v>
   <v>       0.46875000       0.21875000       0.00000000 </v>
   <v>      -0.46875000       0.21875000       0.00000000 </v>
   <v>      -0.40625000       0.21875000       0.00000000 </v>
   <v>      -0.34375000       0.21875000       0.00000000 </v>
   <v>      -0.28125000       0.21875000       0.00000000 </v>
   <v>      -0.21875000       0.21875000       0.00000000 </v>
   <v>       0.28125000       0.28125000       0.00000000 </v>
   <v>       0.34375000       0.28125000       0.00000000 </v>
   <v>       0.40625000       0.28125000       0.00000000 </v>
   <v>       0.46875000       0.28125000       0.00000000 </v>
   <v>      -0.46875000       0.28125000       0.00000000 </v>
   <v>      -0.40625000       0.28125000       0.00000000 </v>
   <v>      -0.34375000       0.28125000       0.00000000 </v>
   <v>      -0.28125000       0.28125000       0.00000000 </v>
   <v>       0.34375000       0.34375000       0.00000000 </v>
   <v>       0.40625000       0.34375000       0.00000000 </v>
   <v>       0.46875000       0.34375000       0.00000000 </v>
   <v>      -0.46875000       0.34375000       0.00000000 </v>
   <v>      -0.40625000       0.34375000       0.00000000 </v>
   <v>      -0.34375000       0.34375000       0.00000000 </v>
   <v>       0.40625000       0.40625000       0.00000000 </v>
   <v>       0.46875000       0.40625000       0.00000000 </v>
   <v>      -0.46875000       0.40625000       0.00000000 </v>
   <v>      -0.40625000       0.40625000       0.00000000 </v>
   <v>       0.46875000       0.46875000       0.00000000 </v>
   <v>      -0.46875000       0.46875000       0.00000000 </v>
  </varray>
  <varray name="weights" >
   <v>       0.00781250 </v>
   <v>       0.01562500 </v>
   <v>       0.01562500 </v>
   <v>       0.01562500 </v>
   <v>       0.01562500 </v>
   <v>       0.01562500 </v>
   <v>       0.01562500 </v>
   <v>       0.01562500 </v>
   <v>       0.01562500 </v>
   <v>       0.01562500 </v>
   <v>       0.01562500 </v>
   <v>       0.01562500 </v>
   <v>       0.01562500 </v>
   <v>       0.01562500 </v>
   <v>       0.01562500 </v>
   <v>       0.00781250 </v>
   <v>       0.00781250 </v>
   <v>       0.01562500 </v>
   <v>       0.01562500 </v>
   <v>       0.01562500 </v>
   <v>       0.01562500 </v>
   <v>       0.01562500 </v>
   <v>       0.01562500 </v>
   <v>       0.01562500 </v>
   <v>       0.01562500 </v>
   <v>       0.01562500 </v>
   <v>       0.01562500 </v>
   <v>       0.01562500 </v>
   <v>       0.01562500 </v>
   <v>       0.00781250 </v>
   <v>       0.00781250 </v>
   <v>       0.01562500 </v>
   <v>       0.01562500 </v>
   <v>       0.01562500 </v>
   <v>       0.01562500 </v>
   <v>       0.01562500 </v>
   <v>       0.01562500 </v>
   <v>       0.01562500 </v>
   <v>       0.01562500 </v>
   <v>       0.01562500 </v>
   <v>       0.01562500 </v>
   <v>       0.00781250 </v>
   <v>       0.00781250 </v>
   <v>       0.01562500 </v>
   <v>       0.01562500 </v>
   <v>       0.01562500 </v>
   <v>       0.01562500 </v>
   <v>       0.01562500 </v>
   <v>       0.01562500 </v>
   <v>       0.01562500 </v>
   <v>       0.01562500 </v>
   <v>       0.00781250 </v>
   <v>       0.00781250 </v>
   <v>       0.01562500 </v>
   <v>       0.01562500 </v>
   <v>       0.01562500 </v>
   <v>       0.01562500 </v>
   <v>       0.01562500 </v>
   <v>       0.01562500 </v>
   <v>       0.00781250 </v>
   <v>       0.00781250 </v>
   <v>       0.01562500 </v>
   <v>       0.01562500 </v>
   <v>       0.01562500 </v>
   <v>       0.01562500 </v>
   <v>       0.00781250 </v>
   <v>       0.00781250 </v>
   <v>       0.01562500 </v>
   <v>       0.01562500 </v>
   <v>       0.00781250 </v>
   <v>       0.00781250 </v>
   <v>       0.00781250 </v>
  </varray>
 </kpoints>
 <parameters>
  <separator name="general" >
   <i type="string" name="SYSTEM">unknown system</i>
   <i type="logical" name="LCOMPAT"> F  </i>
  </separator>
  <separator name="electronic" >
   <i type="string" name="PREC">accura</i>
   <i name="ENMAX">    520.00000000</i>
   <i name="ENAUG">    644.87300000</i>
   <i name="EDIFF">      0.00000100</i>
   <i type="int" name="IALGO">    38</i>
   <i type="int" name="IWAVPR">    11</i>
   <i type="int" name="NBANDS">   128</i>
   <i name="NELECT">      8.00000000</i>
   <i type="int" name="TURBO">     0</i>
   <i type="int" name="IRESTART">     0</i>
   <i type="int" name="NREBOOT">     0</i>
   <i type="int" name="NMIN">     0</i>
   <i name="EREF">      0.00000000</i>
   <separator name="electronic smearing" >
    <i type="int" name="ISMEAR">     0</i>
    <i name="SIGMA">      0.10000000</i>
    <i name="KSPACING">      0.50000000</i>
    <i type="logical" name="KGAMMA"> T  </i>
   </separator>
   <separator name="electronic projectors" >
    <i type="logical" name="LREAL"> F  </i>
    <v name="ROPT">      0.00000000</v>
    <i type="int" name="LMAXPAW">  -100</i>
    <i type="int" name="LMAXMIX">     2</i>
    <i type="logical" name="NLSPLINE"> F  </i>
   </separator>
   <separator name="electronic startup" >
    <i type="int" name="ISTART">     0</i>
    <i type="int" name="ICHARG">     2</i>
    <i type="int" name="INIWAV">     1</i>
   </separator>
   <separator name="electronic spin" >
    <i type="int" name="ISPIN">     1</i>
    <i type="logical" name="LNONCOLLINEAR"> F  </i>
    <v name="MAGMOM">      1.00000000      1.00000000</v>
    <i name="NUPDOWN">     -1.00000000</i>
    <i type="logical" name="LSORBIT"> F  </i>
    <v name="SAXIS">      0.00000000      0.00000000      1.00000000</v>
    <i type="logical" name="LSPIRAL"> F  </i>
    <v name="QSPIRAL">      0.00000000      0.00000000      0.00000000</v>
    <i type="logical" name="LZEROZ"> F  </i>
   </separator>
   <separator name="electronic exchange-correlation" >
    <i type="logical" name="LASPH"> F  </i>
    <i type="logical" name="LMETAGGA"> F  </i>
   </separator>
   <separator name="electronic convergence" >
    <i type="int" name="NELM">    60</i>
    <i type="int" name="NELMDL">    -5</i>
    <i type="int" name="NELMIN">     2</i>
    <i name="ENINI">    520.00000000</i>
    <separator name="electronic convergence detail" >
     <i type="logical" name="LDIAG"> T  </i>
     <i type="logical" name="LSUBROT"> F  </i>
     <i name="WEIMIN">      0.00100000</i>
     <i name="EBREAK">      0.00000000</i>
     <i name="DEPER">      0.30000000</i>
     <i type="int" name="NRMM">     4</i>
     <i name="TIME">      0.40000000</i>
    </separator>
   </separator>
   <separator name="electronic mixer" >
    <i name="AMIX">      0.40000000</i>
    <i name="BMIX">      1.00000000</i>
    <i name="AMIN">      0.10000000</i>
    <i name="AMIX_MAG">      1.60000000</i>
    <i name="BMIX_MAG">      1.00000000</i>
    <separator name="electronic mixer details" >
     <i type="int" name="IMIX">     4</i>
     <i type="logical" name="MIXFIRST"> F  </i>
     <i type="int" name="MAXMIX">   -45</i>
     <i name="WC">    100.00000000</i>
     <i type="int" name="INIMIX">     1</i>
     <i type="int" name="MIXPRE">     1</i>
     <i type="int" name="MREMOVE">     5</i>
    </separator>
   </separator>
   <separator name="electronic dipolcorrection" >
    <i type="logical" name="LDIPOL"> F  </i>
    <i type="logical" name="LMONO"> F  </i>
    <i type="int" name="IDIPOL">     0</i>
    <i name="EPSILON">      1.00000000</i>
    <v name="DIPOL">   -100.00000000   -100.00000000   -100.00000000</v>
    <i name="EFIELD">      0.00000000</i>
   </separator>
  </separator>
  <separator name="grids" >
   <i type="int" name="NGX">    18</i>
   <i type="int" name="NGY">    18</i>
   <i type="int" name="NGZ">   120</i>
   <i type="int" name="NGXF">    36</i>
   <i type="int" name="NGYF">    36</i>
   <i type="int" name="NGZF">   240</i>
   <i type="logical" name="ADDGRID"> F  </i>
  </separator>
  <separator name="ionic" >
   <i type="int" name="NSW">    50</i>
   <i type="int" name="IBRION">     2</i>
   <i type="int" name="MDALGO">     0</i>
   <i type="int" name="ISIF">     2</i>
   <i name="PSTRESS">      0.00000000</i>
   <i name="EDIFFG">      0.00001000</i>
   <i type="int" name="NFREE">     1</i>
   <i name="POTIM">      0.10000000</i>
   <i name="SMASS">     -3.00000000</i>
   <i name="SCALEE">      1.00000000</i>
  </separator>
  <separator name="ionic md" >
   <i name="TEBEG">      0.00010000</i>
   <i name="TEEND">      0.00010000</i>
   <i type="int" name="NBLOCK">     1</i>
   <i type="int" name="KBLOCK">    50</i>
   <i type="int" name="NPACO">   256</i>
   <i name="APACO">     16.00000000</i>
  </separator>
  <separator name="symmetry" >
   <i type="int" name="ISYM">     2</i>
   <i name="SYMPREC">      0.00001000</i>
  </separator>
  <separator name="dos" >
   <i type="int" name="LORBIT">     0</i>
   <v name="RWIGS">     -1.00000000</v>
   <i type="int" name="NEDOS">   301</i>
   <i name="EMIN">     10.00000000</i>
   <i name="EMAX">    -10.00000000</i>
   <i name="EFERMI">      0.00000000</i>
  </separator>
  <separator name="writing" >
   <i type="int" name="NWRITE">     2</i>
   <i type="logical" name="LWAVE"> F  </i>
   <i type="logical" name="LDOWNSAMPLE"> F  </i>
   <i type="logical" name="LCHARG"> F  </i>
   <i type="logical" name="LPARD"> F  </i>
   <i type="logical" name="LVTOT"> F  </i>
   <i type="logical" name="LVHAR"> F  </i>
   <i type="logical" name="LELF"> F  </i>
   <i type="logical" name="LOPTICS"> F  </i>
   <v name="STM">      0.00000000      0.00000000      0.00000000      0.00000000      0.00000000      0.00000000      0.00000000</v>
  </separator>
  <separator name="performance" >
   <i type="int" name="NPAR">     4</i>
   <i type="int" name="NSIM">     4</i>
   <i type="int" name="NBLK">    -1</i>
   <i type="logical" name="LPLANE"> T  </i>
   <i type="logical" name="LSCALAPACK"> T  </i>
   <i type="logical" name="LSCAAWARE"> T  </i>
   <i type="logical" name="LSCALU"> F  </i>
   <i type="logical" name="LASYNC"> F  </i>
   <i type="logical" name="LORBITALREAL"> F  </i>
  </separator>
  <separator name="miscellaneous" >
   <i type="int" name="IDIOT">     3</i>
   <i type="int" name="ISPECIAL">     0</i>
   <i type="logical" name="LMUSIC"> F  </i>
   <v name="POMASS">     12.01100000</v>
   <v name="DARWINR">      0.00000000</v>
   <v name="DARWINV">      1.00000000</v>
   <i type="logical" name="LCORR"> T  </i>
  </separator>
  <i type="logical" name="GGA_COMPAT"> T  </i>
  <i type="logical" name="LBERRY"> F  </i>
  <i type="int" name="ICORELEVEL">     0</i>
  <i type="logical" name="LDAU"> F  </i>
  <i type="int" name="I_CONSTRAINED_M">     0</i>
  <separator name="electronic exchange-correlation" >
   <i type="string" name="GGA">--</i>
   <i type="int" name="VOSKOWN">     0</i>
   <i type="logical" name="LHFCALC"> F  </i>
   <i type="string" name="PRECFOCK"></i>
   <i type="logical" name="LSYMGRAD"> F  </i>
   <i type="logical" name="LHFONE"> F  </i>
   <i type="logical" name="LRHFCALC"> F  </i>
   <i type="logical" name="LTHOMAS"> F  </i>
   <i type="logical" name="LMODELHF"> F  </i>
   <i name="ENCUT4O">     -1.00000000</i>
   <i type="int" name="EXXOEP">     0</i>
   <i type="int" name="FOURORBIT">     0</i>
   <i name="AEXX">      0.00000000</i>
   <i name="HFALPHA">      0.00000000</i>
   <i name="MCALPHA">      0.00000000</i>
   <i name="ALDAX">      1.00000000</i>
   <i name="AGGAX">      1.00000000</i>
   <i name="ALDAC">      1.00000000</i>
   <i name="AGGAC">      1.00000000</i>
   <i type="int" name="NKREDX">     1</i>
   <i type="int" name="NKREDY">     1</i>
   <i type="int" name="NKREDZ">     1</i>
   <i type="logical" name="SHIFTRED"> F  </i>
   <i type="logical" name="ODDONLY"> F  </i>
   <i type="logical" name="EVENONLY"> F  </i>
   <i type="int" name="LMAXFOCK">     0</i>
   <i type="int" name="NMAXFOCKAE">     0</i>
   <i type="logical" name="LFOCKAEDFT"> F  </i>
   <i name="HFSCREEN">      0.00000000</i>
   <i name="HFSCREENC">      0.00000000</i>
   <i type="int" name="NBANDSGWLOW">     0</i>
  </separator>
  <separator name="vdW DFT" >
   <i type="logical" name="LUSE_VDW"> F  </i>
   <i name="Zab_VDW">     -0.84910000</i>
   <i name="PARAM1">      0.12340000</i>
   <i name="PARAM2">      1.00000000</i>
   <i name="PARAM3">      0.00000000</i>
  </separator>
  <separator name="model GW" >
   <i type="int" name="MODEL_GW">     0</i>
   <i name="MODEL_EPS0">     23.09805803</i>
   <i name="MODEL_ALPHA">      1.00000000</i>
  </separator>
  <separator name="linear response parameters" >
   <i type="logical" name="LEPSILON"> F  </i>
   <i type="logical" name="LRPA"> F  </i>
   <i type="logical" name="LNABLA"> F  </i>
   <i type="logical" name="LVEL"> F  </i>
   <i type="int" name="KINTER">     0</i>
   <i name="CSHIFT">      0.10000000</i>
   <i name="OMEGAMAX">     -1.00000000</i>
   <i name="DEG_THRESHOLD">      0.00200000</i>
   <i name="RTIME">     -0.10000000</i>
   <i name="WPLASMAI">      0.00000000</i>
   <v name="DFIELD">      0.00000000      0.00000000      0.00000000</v>
   <v name="WPLASMA">      0.00000000      0.00000000      0.00000000      0.00000000      0.00000000      0.00000000      0.00000000      0.00000000      0.00000000</v>
  </separator>
  <separator name="orbital magnetization" >
   <i type="logical" name="NUCIND"> F  </i>
   <v name="MAGPOS">      0.00000000      0.00000000      0.00000000</v>
   <i type="logical" name="LNICSALL"> T  </i>
   <i type="logical" name="ORBITALMAG"> F  </i>
   <i type="logical" name="LMAGBLOCH"> F  </i>
   <i type="logical" name="LCHIMAG"> F  </i>
   <i type="logical" name="LGAUGE"> T  </i>
   <i type="int" name="MAGATOM">     0</i>
   <v name="MAGDIPOL">      0.00000000      0.00000000      0.00000000</v>
   <v name="AVECCONST">      0.00000000      0.00000000      0.00000000</v>
  </separator>
  <separator name="response functions" >
   <i type="logical" name="LADDER"> F  </i>
   <i type="logical" name="LRPAFORCE"> F  </i>
   <i type="logical" name="LFXC"> F  </i>
   <i type="logical" name="LHARTREE"> T  </i>
   <i type="int" name="IBSE">     0</i>
   <v type="int" name="KPOINT">    -1     0     0     0</v>
   <i type="logical" name="LTCTE"> F  </i>
   <i type="logical" name="LTETE"> F  </i>
   <i type="logical" name="LTRIPLET"> F  </i>
   <i type="logical" name="LFXCEPS"> F  </i>
   <i type="logical" name="LFXHEG"> F  </i>
   <i type="int" name="NATURALO">     2</i>
   <i type="logical" name="L2ORDER"> F  </i>
   <i type="logical" name="LMP2LT"> F  </i>
   <i type="logical" name="LUSEW"> F  </i>
   <i name="ENCUTGW">     -2.00000000</i>
   <i name="ENCUTGWSOFT">     -2.00000000</i>
   <i name="ENCUTLF">     -1.00000000</i>
   <i type="int" name="LMAXMP2">    -1</i>
   <i name="SCISSOR">      0.00000000</i>
   <i type="int" name="NOMEGA">     0</i>
   <i type="int" name="NOMEGAR">     0</i>
   <i type="int" name="NBANDSGW">    -1</i>
   <i type="int" name="NBANDSO">    -1</i>
   <i type="int" name="NBANDSV">    -1</i>
   <i type="int" name="NELM">     1</i>
   <i type="int" name="NELMHF">     1</i>
   <i type="int" name="DIM">     3</i>
   <i type="int" name="ANTIRES">     0</i>
   <i name="OMEGAMAX">    -30.00000000</i>
   <i name="OMEGAMIN">    -30.00000000</i>
   <i name="OMEGATL">   -200.00000000</i>
   <i type="int" name="OMEGAGRID">   140</i>
   <i name="CSHIFT">     -0.10000000</i>
   <i type="logical" name="SELFENERGY"> F  </i>
   <i type="logical" name="LSPECTRAL"> F  </i>
   <i type="logical" name="LSPECTRALGW"> F  </i>
   <i type="logical" name="LSINGLES"> F  </i>
   <i type="logical" name="LFERMIGW"> F  </i>
   <i type="logical" name="ODDONLYGW"> F  </i>
   <i type="logical" name="EVENONLYGW"> F  </i>
   <i type="int" name="NKREDLFX">     1</i>
   <i type="int" name="NKREDLFY">     1</i>
   <i type="int" name="NKREDLFZ">     1</i>
   <i type="int" name="MAXMEM">  2800</i>
   <i type="int" name="TELESCOPE">     0</i>
   <i type="int" name="TAUPAR">     1</i>
   <i type="int" name="OMEGAPAR">    -1</i>
   <i name="LAMBDA">      1.00000000</i>
  </separator>
  <separator name="External order field" >
   <i name="OFIELD_KAPPA">      0.00000000</i>
   <v name="OFIELD_K">      0.00000000      0.00000000      0.00000000</v>
   <i name="OFIELD_Q6_NEAR">      0.00000000</i>
   <i name="OFIELD_Q6_FAR">      0.00000000</i>
   <i name="OFIELD_A">      0.00000000</i>
  </separator>
 </parameters>
 <atominfo>
  <atoms>       2 </atoms>
  <types>       1 </types>
  <array name="atoms" >
   <dimension dim="1">ion</dimension>
   <field type="string">element</field>
   <field type="int">atomtype</field>
   <set>
    <rc><c>C </c><c>   1</c></rc>
    <rc><c>C </c><c>   1</c></rc>
   </set>
  </array>
  <array name="atomtypes" >
   <dimension dim="1">type</dimension>
   <field type="int">atomspertype</field>
   <field type="string">element</field>
   <field>mass</field>
   <field>valence</field>
   <field type="string">pseudopotential</field>
   <set>
    <rc><c>   2</c><c>C </c><c>     12.01100000</c><c>      4.00000000</c><c> PAW_PBE C 08Apr2002                    </c></rc>
   </set>
  </array>
 </atominfo>
 <structure name="initialpos" >
  <crystal>
   <varray name="basis" >
    <v>       1.16015450      -2.13771446       0.00000000 </v>
    <v>       1.16015450       2.13771446       0.00000000 </v>
    <v>       0.00000000       0.00000000      15.52239374 </v>
   </varray>
   <i name="volume">     76.99352677 </i>
   <varray name="rec_basis" >
    <v>       0.43097708      -0.23389466       0.00000000 </v>
    <v>       0.43097708       0.23389466       0.00000000 </v>
    <v>       0.00000000       0.00000000       0.06442305 </v>
   </varray>
  </crystal>
  <varray name="positions" >
   <v>       0.66666762       0.33333238       0.50000000 </v>
   <v>       0.33333238       0.66666762       0.50000000 </v>
  </varray>
 </structure>
 <calculation>
  <scstep>
   <time name="dav">    3.45    3.46</time>
   <time name="total">    3.47    3.47</time>
   <energy>
    <i name="alphaZ">      4.23309166 </i>
    <i name="ewald">    956.10315368 </i>
    <i name="hartreedc">  -1169.04228844 </i>
    <i name="XCdc">     27.97387346 </i>
    <i name="pawpsdc">     75.66288619 </i>
    <i name="pawaedc">    -77.96384553 </i>
    <i name="eentropy">     -0.00000000 </i>
    <i name="bandstr">    -67.36812387 </i>
    <i name="atom">    294.29778662 </i>
    <i name="e_fr_energy">     43.89653377 </i>
    <i name="e_wo_entrp">     43.89653377 </i>
    <i name="e_0_energy">     43.89653377 </i>
   </energy>
  </scstep>
  <scstep>
   <time name="dav">    3.92    3.92</time>
   <time name="total">    3.92    3.92</time>
   <energy>
    <i name="e_fr_energy">    -18.13998957 </i>
    <i name="e_wo_entrp">    -18.13998957 </i>
    <i name="e_0_energy">    -18.13998957 </i>
   </energy>
  </scstep>
  <scstep>
   <time name="dav">    3.84    3.85</time>
   <time name="total">    3.85    3.85</time>
   <energy>
    <i name="e_fr_energy">    -19.89435804 </i>
    <i name="e_wo_entrp">    -19.89435804 </i>
    <i name="e_0_energy">    -19.89435804 </i>
   </energy>
  </scstep>
  <scstep>
   <time name="dav">    3.80    3.80</time>
   <time name="total">    3.80    3.80</time>
   <energy>
    <i name="e_fr_energy">    -19.89711909 </i>
    <i name="e_wo_entrp">    -19.89711909 </i>
    <i name="e_0_energy">    -19.89711909 </i>
   </energy>
  </scstep>
  <scstep>
   <time name="dav">    3.76    3.77</time>
   <time name="total">    3.78    3.78</time>
   <energy>
    <i name="e_fr_energy">    -19.89712462 </i>
    <i name="e_wo_entrp">    -19.89712462 </i>
    <i name="e_0_energy">    -19.89712462 </i>
   </energy>
  </scstep>
  <scstep>
   <time name="dav">    3.92    3.92</time>
   <time name="total">    3.94    3.94</time>
   <energy>
    <i name="e_fr_energy">    -18.67291861 </i>
    <i name="e_wo_entrp">    -18.67291861 </i>
    <i name="e_0_energy">    -18.67291861 </i>
   </energy>
  </scstep>
  <scstep>
   <time name="dav">    3.75    3.75</time>
   <time name="total">    3.77    3.77</time>
   <energy>
    <i name="e_fr_energy">    -18.21522349 </i>
    <i name="e_wo_entrp">    -18.21522349 </i>
    <i name="e_0_energy">    -18.21522349 </i>
   </energy>
  </scstep>
  <scstep>
   <time name="dav">    3.86    3.86</time>
   <time name="total">    3.88    3.89</time>
   <energy>
    <i name="e_fr_energy">    -18.20315254 </i>
    <i name="e_wo_entrp">    -18.20315254 </i>
    <i name="e_0_energy">    -18.20315254 </i>
   </energy>
  </scstep>
  <scstep>
   <time name="dav">    3.85    3.85</time>
   <time name="total">    3.88    3.89</time>
   <energy>
    <i name="e_fr_energy">    -18.19997438 </i>
    <i name="e_wo_entrp">    -18.19997438 </i>
    <i name="e_0_energy">    -18.19997438 </i>
   </energy>
  </scstep>
  <scstep>
   <time name="dav">    3.80    3.80</time>
   <time name="total">    3.82    3.83</time>
   <energy>
    <i name="e_fr_energy">    -18.19914370 </i>
    <i name="e_wo_entrp">    -18.19914370 </i>
    <i name="e_0_energy">    -18.19914370 </i>
   </energy>
  </scstep>
  <scstep>
   <time name="dav">    3.81    3.81</time>
   <time name="total">    3.83    3.83</time>
   <energy>
    <i name="e_fr_energy">    -18.19851493 </i>
    <i name="e_wo_entrp">    -18.19851493 </i>
    <i name="e_0_energy">    -18.19851493 </i>
   </energy>
  </scstep>
  <scstep>
   <time name="dav">    3.66    3.66</time>
   <time name="total">    3.68    3.69</time>
   <energy>
    <i name="e_fr_energy">    -18.19949403 </i>
    <i name="e_wo_entrp">    -18.19949403 </i>
    <i name="e_0_energy">    -18.19949403 </i>
   </energy>
  </scstep>
  <scstep>
   <time name="dav">    3.69    3.69</time>
   <time name="total">    3.71    3.71</time>
   <energy>
    <i name="e_fr_energy">    -18.20019382 </i>
    <i name="e_wo_entrp">    -18.20019382 </i>
    <i name="e_0_energy">    -18.20019382 </i>
   </energy>
  </scstep>
  <scstep>
   <time name="dav">    3.79    3.79</time>
   <time name="total">    3.81    3.81</time>
   <energy>
    <i name="e_fr_energy">    -18.20022893 </i>
    <i name="e_wo_entrp">    -18.20022893 </i>
    <i name="e_0_energy">    -18.20022893 </i>
   </energy>
  </scstep>
  <scstep>
   <time name="dav">    3.80    3.81</time>
   <time name="total">    3.83    3.83</time>
   <energy>
    <i name="e_fr_energy">    -18.20035599 </i>
    <i name="e_wo_entrp">    -18.20035599 </i>
    <i name="e_0_energy">    -18.20035599 </i>
   </energy>
  </scstep>
  <scstep>
   <time name="dav">    3.80    3.80</time>
   <time name="total">    3.82    3.83</time>
   <energy>
    <i name="e_fr_energy">    -18.20037264 </i>
    <i name="e_wo_entrp">    -18.20037264 </i>
    <i name="e_0_energy">    -18.20037264 </i>
   </energy>
  </scstep>
  <scstep>
   <time name="dav">    3.78    3.78</time>
   <time name="total">    3.80    3.80</time>
   <energy>
    <i name="e_fr_energy">    -18.20037670 </i>
    <i name="e_wo_entrp">    -18.20037670 </i>
    <i name="e_0_energy">    -18.20037670 </i>
   </energy>
  </scstep>
  <scstep>
   <time name="dav">    3.70    3.70</time>
   <time name="total">    3.71    3.71</time>
   <energy>
    <i name="alphaZ">      4.23309166 </i>
    <i name="ewald">    956.10315368 </i>
    <i name="hartreedc">  -1207.91821771 </i>
    <i name="XCdc">     29.33802129 </i>
    <i name="pawpsdc">    152.19837338 </i>
    <i name="pawaedc">   -154.84830531 </i>
    <i name="eentropy">     -0.00000000 </i>
    <i name="bandstr">    -91.60428128 </i>
    <i name="atom">    294.29778662 </i>
    <i name="e_fr_energy">    -18.20037768 </i>
    <i name="e_wo_entrp">    -18.20037768 </i>
    <i name="e_0_energy">    -18.20037768 </i>
   </energy>
  </scstep>
  <structure>
   <crystal>
    <varray name="basis" >
     <v>       1.16015450      -2.13771446       0.00000000 </v>
     <v>       1.16015450       2.13771446       0.00000000 </v>
     <v>       0.00000000       0.00000000      15.52239374 </v>
    </varray>
    <i name="volume">     76.99352677 </i>
    <varray name="rec_basis" >
     <v>       0.43097708      -0.23389466       0.00000000 </v>
     <v>       0.43097708       0.23389466       0.00000000 </v>
     <v>       0.00000000       0.00000000       0.06442305 </v>
    </varray>
   </crystal>
   <varray name="positions" >
    <v>       0.66666762       0.33333238       0.50000000 </v>
    <v>       0.33333238       0.66666762       0.50000000 </v>
   </varray>
  </structure>
  <varray name="forces" >
   <v>       0.00000000       1.11617579       0.00000000 </v>
   <v>       0.00000000      -1.11617579       0.00000000 </v>
  </varray>
  <varray name="stress" >
   <v>     167.94256438       0.00000000       0.00000000 </v>
   <v>       0.00000000      26.50144001       0.00000000 </v>
   <v>       0.00000000       0.00000000      -0.25227571 </v>
  </varray>
  <energy>
   <i name="e_fr_energy">    -18.20037768 </i>
   <i name="e_wo_entrp">    -18.20037768 </i>
   <i name="e_0_energy">     -0.00000000 </i>
  </energy>
  <time name="totalsc">   68.88   68.96</time>
 </calculation>
 <calculation>
  <scstep>
   <time name="dav">    3.57    3.57</time>
   <time name="total">    3.60    3.60</time>
   <energy>
    <i name="alphaZ">      4.23309166 </i>
    <i name="ewald">    955.83986633 </i>
    <i name="hartreedc">  -1207.80941324 </i>
    <i name="XCdc">     29.33080569 </i>
    <i name="pawpsdc">    152.19825297 </i>
    <i name="pawaedc">   -154.84818429 </i>
    <i name="eentropy">     -0.00000000 </i>
    <i name="bandstr">    -91.45296956 </i>
    <i name="atom">    294.29778662 </i>
    <i name="e_fr_energy">    -18.21076382 </i>
    <i name="e_wo_entrp">    -18.21076382 </i>
    <i name="e_0_energy">    -18.21076382 </i>
   </energy>
  </scstep>
  <scstep>
   <time name="dav">    3.73    3.73</time>
   <time name="total">    3.75    3.75</time>
   <energy>
    <i name="e_fr_energy">    -18.21008352 </i>
    <i name="e_wo_entrp">    -18.21008352 </i>
    <i name="e_0_energy">    -18.21008352 </i>
   </energy>
  </scstep>
  <scstep>
   <time name="dav">    3.73    3.73</time>
   <time name="total">    3.75    3.76</time>
   <energy>
    <i name="e_fr_energy">    -18.20969075 </i>
    <i name="e_wo_entrp">    -18.20969075 </i>
    <i name="e_0_energy">    -18.20969075 </i>
   </energy>
  </scstep>
  <scstep>
   <time name="dav">    3.69    3.69</time>
   <time name="total">    3.71    3.71</time>
   <energy>
    <i name="e_fr_energy">    -18.20969028 </i>
    <i name="e_wo_entrp">    -18.20969028 </i>
    <i name="e_0_energy">    -18.20969028 </i>
   </energy>
  </scstep>
  <scstep>
   <time name="dav">    3.78    3.79</time>
   <time name="total">    3.79    3.80</time>
   <energy>
    <i name="alphaZ">      4.23309166 </i>
    <i name="ewald">    955.83986633 </i>
    <i name="hartreedc">  -1207.71541210 </i>
    <i name="XCdc">     29.32674414 </i>
    <i name="pawpsdc">    151.69941753 </i>
    <i name="pawaedc">   -154.34723428 </i>
    <i name="eentropy">     -0.00000000 </i>
    <i name="bandstr">    -91.54395047 </i>
    <i name="atom">    294.29778662 </i>
    <i name="e_fr_energy">    -18.20969057 </i>
    <i name="e_wo_entrp">    -18.20969057 </i>
    <i name="e_0_energy">    -18.20969057 </i>
   </energy>
  </scstep>
  <structure>
   <crystal>
    <varray name="basis" >
     <v>       1.16015450      -2.13771446       0.00000000 </v>
     <v>       1.16015450       2.13771446       0.00000000 </v>
     <v>       0.00000000       0.00000000      15.52239374 </v>
    </varray>
    <i name="volume">     76.99352677 </i>
    <varray name="rec_basis" >
     <v>       0.43097708      -0.23389466       0.00000000 </v>
     <v>       0.43097708       0.23389466       0.00000000 </v>
     <v>       0.00000000       0.00000000       0.06442305 </v>
    </varray>
   </crystal>
   <varray name="positions" >
    <v>       0.66414870       0.33585130       0.50000000 </v>
    <v>       0.33585130       0.66414870       0.50000000 </v>
   </varray>
  </structure>
  <varray name="forces" >
   <v>       0.00000000      -0.26401925       0.00000000 </v>
   <v>       0.00000000       0.26401925      -0.00000000 </v>
  </varray>
  <varray name="stress" >
   <v>     157.44930801       0.00000000       0.00000000 </v>
   <v>       0.00000000      31.06033661       0.00000000 </v>
   <v>       0.00000000       0.00000000      -0.28038684 </v>
  </varray>
  <energy>
   <i name="e_fr_energy">    -18.20969057 </i>
   <i name="e_wo_entrp">    -18.20969057 </i>
   <i name="e_0_energy">     -0.00000000 </i>
  </energy>
  <time name="totalsc">   19.17   19.19</time>
 </calculation>
 <calculation>
  <scstep>
   <time name="dav">    3.62    3.62</time>
   <time name="total">    3.64    3.65</time>
   <energy>
    <i name="alphaZ">      4.23309166 </i>
    <i name="ewald">    955.88222281 </i>
    <i name="hartreedc">  -1207.73128980 </i>
    <i name="XCdc">     29.32787589 </i>
    <i name="pawpsdc">    151.69827212 </i>
    <i name="pawaedc">   -154.34608379 </i>
    <i name="eentropy">     -0.00000000 </i>
    <i name="bandstr">    -91.57213584 </i>
    <i name="atom">    294.29778662 </i>
    <i name="e_fr_energy">    -18.21026032 </i>
    <i name="e_wo_entrp">    -18.21026032 </i>
    <i name="e_0_energy">    -18.21026032 </i>
   </energy>
  </scstep>
  <scstep>
   <time name="dav">    3.72    3.73</time>
   <time name="total">    3.75    3.75</time>
   <energy>
    <i name="e_fr_energy">    -18.21023620 </i>
    <i name="e_wo_entrp">    -18.21023620 </i>
    <i name="e_0_energy">    -18.21023620 </i>
   </energy>
  </scstep>
  <scstep>
   <time name="dav">    3.77    3.77</time>
   <time name="total">    3.79    3.80</time>
   <energy>
    <i name="e_fr_energy">    -18.21022255 </i>
    <i name="e_wo_entrp">    -18.21022255 </i>
    <i name="e_0_energy">    -18.21022255 </i>
   </energy>
  </scstep>
  <scstep>
   <time name="dav">    3.68    3.68</time>
   <time name="total">    3.69    3.69</time>
   <energy>
    <i name="alphaZ">      4.23309166 </i>
    <i name="ewald">    955.88222281 </i>
    <i name="hartreedc">  -1207.74264356 </i>
    <i name="XCdc">     29.32855053 </i>
    <i name="pawpsdc">    151.77469037 </i>
    <i name="pawaedc">   -154.42282562 </i>
    <i name="eentropy">     -0.00000000 </i>
    <i name="bandstr">    -91.56109536 </i>
    <i name="atom">    294.29778662 </i>
    <i name="e_fr_energy">    -18.21022255 </i>
    <i name="e_wo_entrp">    -18.21022255 </i>
    <i name="e_0_energy">    -18.21022255 </i>
   </energy>
  </scstep>
  <structure>
   <crystal>
    <varray name="basis" >
     <v>       1.16015450      -2.13771446       0.00000000 </v>
     <v>       1.16015450       2.13771446       0.00000000 </v>
     <v>       0.00000000       0.00000000      15.52239374 </v>
    </varray>
    <i name="volume">     76.99352677 </i>
    <varray name="rec_basis" >
     <v>       0.43097708      -0.23389466       0.00000000 </v>
     <v>       0.43097708       0.23389466       0.00000000 </v>
     <v>       0.00000000       0.00000000       0.06442305 </v>
    </varray>
   </crystal>
   <varray name="positions" >
    <v>       0.66462006       0.33537994       0.50000000 </v>
    <v>       0.33537994       0.66462006       0.50000000 </v>
   </varray>
  </structure>
  <varray name="forces" >
   <v>       0.00000000       0.00017117       0.00000000 </v>
   <v>       0.00000000      -0.00017117      -0.00000000 </v>
  </varray>
  <varray name="stress" >
   <v>     159.32306044      -0.00000000       0.00000000 </v>
   <v>       0.00000000      30.04686740       0.00000000 </v>
   <v>       0.00000000       0.00000000      -0.26029735 </v>
  </varray>
  <energy>
   <i name="e_fr_energy">    -18.21022255 </i>
   <i name="e_wo_entrp">    -18.21022255 </i>
   <i name="e_0_energy">     -0.00000000 </i>
  </energy>
  <time name="totalsc">   15.24   15.26</time>
  <eigenvalues>
   <array>
    <dimension dim="1">band</dimension>
    <dimension dim="2">kpoint</dimension>
    <dimension dim="3">spin</dimension>
    <field>eigene</field>
    <field>occ</field>
    <set>
     <set comment="spin 1">
      <set comment="kpoint 1">
       <r>  -22.1539    1.0000 </r>
       <r>  -10.1254    1.0000 </r>
       <r>   -5.5784    1.0000 </r>
       <r>   -4.7714    1.0000 </r>
       <r>    1.1081    0.0000 </r>
       <r>    2.0157    0.0000 </r>
       <r>    2.5552    0.0000 </r>
       <r>    4.2589    0.0000 </r>
       <r>    4.9980    0.0000 </r>
       <r>    6.6157    0.0000 </r>
       <r>    7.3232    0.0000 </r>
       <r>    7.8917    0.0000 </r>
       <r>    8.9230    0.0000 </r>
       <r>   10.2470    0.0000 </r>
       <r>   12.8769    0.0000 </r>
       <r>   13.0973    0.0000 </r>
       <r>   14.2394    0.0000 </r>
       <r>   19.0561    0.0000 </r>
       <r>   20.8916    0.0000 </r>
       <r>   22.1592    0.0000 </r>
       <r>   25.8073    0.0000 </r>
       <r>   26.2119    0.0000 </r>
       <r>   27.3518    0.0000 </r>
       <r>   28.8307    0.0000 </r>
       <r>   29.9084    0.0000 </r>
       <r>   31.5399    0.0000 </r>
       <r>   33.0060    0.0000 </r>
       <r>   33.1698    0.0000 </r>
       <r>   33.8663    0.0000 </r>
       <r>   34.2035    0.0000 </r>
       <r>   34.3071    0.0000 </r>
       <r>   34.7040    0.0000 </r>
       <r>   35.1305    0.0000 </r>
       <r>   35.1467    0.0000 </r>
       <r>   35.1855    0.0000 </r>
       <r>   35.2750    0.0000 </r>
       <r>   35.4142    0.0000 </r>
       <r>   35.4202    0.0000 </r>
       <r>   35.4531    0.0000 </r>
       <r>   36.8400    0.0000 </r>
       <r>   36.9588    0.0000 </r>
       <r>   37.2701    0.0000 </r>
       <r>   37.2918    0.0000 </r>
       <r>   37.4639    0.0000 </r>
       <r>   37.7140    0.0000 </r>
       <r>   37.7337    0.0000 </r>
       <r>   37.8743    0.0000 </r>
       <r>   38.0226    0.0000 </r>
       <r>   38.2708    0.0000 </r>
       <r>   39.9239    0.0000 </r>
       <r>   40.1176    0.0000 </r>
       <r>   40.3538    0.0000 </r>
       <r>   40.9736    0.0000 </r>
       <r>   41.0235    0.0000 </r>
       <r>   41.3221    0.0000 </r>
       <r>   41.4818    0.0000 </r>
       <r>   41.6292    0.0000 </r>
       <r>   41.6570    0.0000 </r>
       <r>   41.8737    0.0000 </r>
       <r>   42.0052    0.0000 </r>
       <r>   42.1422    0.0000 </r>
       <r>   42.1478    0.0000 </r>
       <r>   42.3829    0.0000 </r>
       <r>   43.8771    0.0000 </r>
       <r>   44.1525    0.0000 </r>
       <r>   44.3542    0.0000 </r>
       <r>   44.3717    0.0000 </r>
       <r>   45.2827    0.0000 </r>
       <r>   45.6870    0.0000 </r>
       <r>   45.7735    0.0000 </r>
       <r>   46.1440    0.0000 </r>
       <r>   46.6168    0.0000 </r>
       <r>   46.7230    0.0000 </r>
       <r>   46.8884    0.0000 </r>
       <r>   46.9761    0.0000 </r>
       <r>   47.8010    0.0000 </r>
       <r>   47.9797    0.0000 </r>
       <r>   48.0085    0.0000 </r>
       <r>   48.1108    0.0000 </r>
       <r>   48.7305    0.0000 </r>
       <r>   48.8787    0.0000 </r>
       <r>   50.0735    0.0000 </r>
       <r>   51.1842    0.0000 </r>
       <r>   51.7142    0.0000 </r>
       <r>   52.7478    0.0000 </r>
       <r>   52.7968    0.0000 </r>
       <r>   53.1182    0.0000 </r>
       <r>   53.1536    0.0000 </r>
       <r>   53.3441    0.0000 </r>
       <r>   53.8309    0.0000 </r>
       <r>   53.8714    0.0000 </r>
       <r>   53.9122    0.0000 </r>
       <r>   54.5203    0.0000 </r>
       <r>   54.9990    0.0000 </r>
       <r>   56.1463    0.0000 </r>
       <r>   57.9053    0.0000 </r>
       <r>   58.3214    0.0000 </r>
       <r>   59.7548    0.0000 </r>
       <r>   59.9896    0.0000 </r>
       <r>   60.3195    0.0000 </r>
       <r>   60.3558    0.0000 </r>
       <r>   60.5776    0.0000 </r>
       <r>   61.2455    0.0000 </r>
       <r>   61.4481    0.0000 </r>
       <r>   61.6583    0.0000 </r>
       <r>   61.8561    0.0000 </r>
       <r>   62.0249    0.0000 </r>
       <r>   62.2375    0.0000 </r>
       <r>   62.4886    0.0000 </r>
       <r>   66.5513    0.0000 </r>
       <r>   67.6913    0.0000 </r>
       <r>   67.6992    0.0000 </r>
       <r>   68.6818    0.0000 </r>
       <r>   68.9705    0.0000 </r>
       <r>   69.4279    0.0000 </r>
       <r>   70.0742    0.0000 </r>
       <r>   70.3580    0.0000 </r>
       <r>   70.4100    0.0000 </r>
       <r>   70.8316    0.0000 </r>
       <r>   71.0735    0.0000 </r>
       <r>   71.0962    0.0000 </r>
       <r>   72.7912    0.0000 </r>
       <r>   72.8982    0.0000 </r>
       <r>   73.0417    0.0000 </r>
       <r>   74.9499    0.0000 </r>
       <r>   75.9131    0.0000 </r>
       <r>   76.8954    0.0000 </r>
       <r>   77.4055    0.0000 </r>
      </set>
      <set comment="kpoint 2">
       <r>  -21.8978    1.0000 </r>
       <r>   -9.8146    1.0000 </r>
       <r>   -6.0583    1.0000 </r>
       <r>   -5.6693    1.0000 </r>
       <r>    1.4582    0.0000 </r>
       <r>    2.3692    0.0000 </r>
       <r>    2.9121    0.0000 </r>
       <r>    4.6112    0.0000 </r>
       <r>    5.3455    0.0000 </r>
       <r>    6.9644    0.0000 </r>
       <r>    7.7272    0.0000 </r>
       <r>    8.2359    0.0000 </r>
       <r>    9.2796    0.0000 </r>
       <r>    9.4435    0.0000 </r>
       <r>   13.2032    0.0000 </r>
       <r>   13.7107    0.0000 </r>
       <r>   14.5907    0.0000 </r>
       <r>   19.3101    0.0000 </r>
       <r>   21.2447    0.0000 </r>
       <r>   23.0559    0.0000 </r>
       <r>   24.5104    0.0000 </r>
       <r>   25.1121    0.0000 </r>
       <r>   26.7016    0.0000 </r>
       <r>   29.1615    0.0000 </r>
       <r>   29.4314    0.0000 </r>
       <r>   29.5267    0.0000 </r>
       <r>   30.8732    0.0000 </r>
       <r>   31.0236    0.0000 </r>
       <r>   31.2024    0.0000 </r>
       <r>   32.3092    0.0000 </r>
       <r>   32.5804    0.0000 </r>
       <r>   33.0396    0.0000 </r>
       <r>   33.0916    0.0000 </r>
       <r>   33.3768    0.0000 </r>
       <r>   33.3873    0.0000 </r>
       <r>   33.7500    0.0000 </r>
       <r>   34.3183    0.0000 </r>
       <r>   35.0504    0.0000 </r>
       <r>   35.3070    0.0000 </r>
       <r>   35.8266    0.0000 </r>
       <r>   35.9775    0.0000 </r>
       <r>   36.1502    0.0000 </r>
       <r>   36.4250    0.0000 </r>
       <r>   37.1844    0.0000 </r>
       <r>   37.2991    0.0000 </r>
       <r>   37.6959    0.0000 </r>
       <r>   37.8463    0.0000 </r>
       <r>   38.3144    0.0000 </r>
       <r>   39.0707    0.0000 </r>
       <r>   39.0987    0.0000 </r>
       <r>   39.5975    0.0000 </r>
       <r>   39.8616    0.0000 </r>
       <r>   39.9597    0.0000 </r>
       <r>   40.0559    0.0000 </r>
       <r>   40.4368    0.0000 </r>
       <r>   41.9985    0.0000 </r>
       <r>   42.1896    0.0000 </r>
       <r>   42.8207    0.0000 </r>
       <r>   43.5803    0.0000 </r>
       <r>   44.0187    0.0000 </r>
       <r>   44.1014    0.0000 </r>
       <r>   44.1533    0.0000 </r>
       <r>   44.2695    0.0000 </r>
       <r>   44.6374    0.0000 </r>
       <r>   44.9369    0.0000 </r>
       <r>   45.0758    0.0000 </r>
       <r>   45.7259    0.0000 </r>
       <r>   46.5710    0.0000 </r>
       <r>   46.7173    0.0000 </r>
       <r>   46.7994    0.0000 </r>
       <r>   46.9242    0.0000 </r>
       <r>   47.5838    0.0000 </r>
       <r>   47.6094    0.0000 </r>
       <r>   48.2539    0.0000 </r>
       <r>   48.5801    0.0000 </r>
       <r>   49.0097    0.0000 </r>
       <r>   49.1184    0.0000 </r>
       <r>   49.2295    0.0000 </r>
       <r>   49.5410    0.0000 </r>
       <r>   49.9027    0.0000 </r>
       <r>   50.6792    0.0000 </r>
       <r>   50.8881    0.0000 </r>
       <r>   51.1451    0.0000 </r>
       <r>   51.2425    0.0000 </r>
       <r>   51.7832    0.0000 </r>
       <r>   52.4692    0.0000 </r>
       <r>   52.8989    0.0000 </r>
       <r>   53.0209    0.0000 </r>
       <r>   54.3028    0.0000 </r>
       <r>   54.8038    0.0000 </r>
       <r>   56.1360    0.0000 </r>
       <r>   56.2377    0.0000 </r>
       <r>   56.7094    0.0000 </r>
       <r>   56.7529    0.0000 </r>
       <r>   57.0415    0.0000 </r>
       <r>   57.4747    0.0000 </r>
       <r>   58.7224    0.0000 </r>
       <r>   59.1909    0.0000 </r>
       <r>   59.3734    0.0000 </r>
       <r>   59.4857    0.0000 </r>
       <r>   59.9933    0.0000 </r>
       <r>   60.0033    0.0000 </r>
       <r>   60.8415    0.0000 </r>
       <r>   62.4916    0.0000 </r>
       <r>   63.2722    0.0000 </r>
       <r>   63.5079    0.0000 </r>
       <r>   63.8237    0.0000 </r>
       <r>   64.9407    0.0000 </r>
       <r>   65.5418    0.0000 </r>
       <r>   65.6055    0.0000 </r>
       <r>   66.5918    0.0000 </r>
       <r>   67.2629    0.0000 </r>
       <r>   68.1824    0.0000 </r>
       <r>   68.6775    0.0000 </r>
       <r>   69.0929    0.0000 </r>
       <r>   69.8938    0.0000 </r>
       <r>   70.5951    0.0000 </r>
       <r>   71.2420    0.0000 </r>
       <r>   71.7457    0.0000 </r>
       <r>   72.2417    0.0000 </r>
       <r>   72.3884    0.0000 </r>
       <r>   73.0717    0.0000 </r>
       <r>   73.8387    0.0000 </r>
       <r>   73.9054    0.0000 </r>
       <r>   75.0666    0.0000 </r>
       <r>   75.7591    0.0000 </r>
       <r>   76.8955    0.0000 </r>
       <r>   77.5868    0.0000 </r>
      </set>
      <set comment="kpoint 3">
       <r>  -21.4422    1.0000 </r>
       <r>   -9.2644    1.0000 </r>
       <r>   -7.2294    1.0000 </r>
       <r>   -6.5709    1.0000 </r>
       <r>    2.0829    0.0000 </r>
       <r>    2.9992    0.0000 </r>
       <r>    3.5495    0.0000 </r>
       <r>    5.2386    0.0000 </r>
       <r>    5.9556    0.0000 </r>
       <r>    6.7557    0.0000 </r>
       <r>    8.1175    0.0000 </r>
       <r>    8.8487    0.0000 </r>
       <r>    9.1712    0.0000 </r>
       <r>    9.9053    0.0000 </r>
       <r>   13.7693    0.0000 </r>
       <r>   14.6991    0.0000 </r>
       <r>   15.2143    0.0000 </r>
       <r>   19.5710    0.0000 </r>
       <r>   21.8400    0.0000 </r>
       <r>   22.4916    0.0000 </r>
       <r>   23.6053    0.0000 </r>
       <r>   24.0385    0.0000 </r>
       <r>   26.1514    0.0000 </r>
       <r>   26.6685    0.0000 </r>
       <r>   27.2550    0.0000 </r>
       <r>   27.6837    0.0000 </r>
       <r>   29.3858    0.0000 </r>
       <r>   29.4610    0.0000 </r>
       <r>   29.6988    0.0000 </r>
       <r>   29.7645    0.0000 </r>
       <r>   29.7831    0.0000 </r>
       <r>   30.8742    0.0000 </r>
       <r>   31.3902    0.0000 </r>
       <r>   31.4178    0.0000 </r>
       <r>   32.1774    0.0000 </r>
       <r>   32.3205    0.0000 </r>
       <r>   33.1464    0.0000 </r>
       <r>   33.4195    0.0000 </r>
       <r>   33.5418    0.0000 </r>
       <r>   33.6768    0.0000 </r>
       <r>   34.2414    0.0000 </r>
       <r>   34.7805    0.0000 </r>
       <r>   36.3898    0.0000 </r>
       <r>   36.6652    0.0000 </r>
       <r>   37.3486    0.0000 </r>
       <r>   37.7361    0.0000 </r>
       <r>   38.0883    0.0000 </r>
       <r>   38.6169    0.0000 </r>
       <r>   38.7712    0.0000 </r>
       <r>   38.8559    0.0000 </r>
       <r>   39.2365    0.0000 </r>
       <r>   39.2626    0.0000 </r>
       <r>   40.4252    0.0000 </r>
       <r>   40.4903    0.0000 </r>
       <r>   42.0132    0.0000 </r>
       <r>   42.3315    0.0000 </r>
       <r>   42.5484    0.0000 </r>
       <r>   42.8213    0.0000 </r>
       <r>   43.4652    0.0000 </r>
       <r>   43.8674    0.0000 </r>
       <r>   44.0908    0.0000 </r>
       <r>   44.7190    0.0000 </r>
       <r>   44.8922    0.0000 </r>
       <r>   45.0700    0.0000 </r>
       <r>   46.4633    0.0000 </r>
       <r>   46.5752    0.0000 </r>
       <r>   47.1982    0.0000 </r>
       <r>   47.6270    0.0000 </r>
       <r>   47.8457    0.0000 </r>
       <r>   48.0196    0.0000 </r>
       <r>   48.3750    0.0000 </r>
       <r>   49.0813    0.0000 </r>
       <r>   49.3692    0.0000 </r>
       <r>   49.8395    0.0000 </r>
       <r>   49.9255    0.0000 </r>
       <r>   50.5438    0.0000 </r>
       <r>   50.5848    0.0000 </r>
       <r>   50.8273    0.0000 </r>
       <r>   51.5903    0.0000 </r>
       <r>   51.8602    0.0000 </r>
       <r>   52.2115    0.0000 </r>
       <r>   52.2989    0.0000 </r>
       <r>   52.6399    0.0000 </r>
       <r>   52.7783    0.0000 </r>
       <r>   53.6068    0.0000 </r>
       <r>   53.9277    0.0000 </r>
       <r>   54.4091    0.0000 </r>
       <r>   54.4493    0.0000 </r>
       <r>   55.4111    0.0000 </r>
       <r>   56.0446    0.0000 </r>
       <r>   57.2863    0.0000 </r>
       <r>   57.5876    0.0000 </r>
       <r>   57.7864    0.0000 </r>
       <r>   58.0794    0.0000 </r>
       <r>   58.3760    0.0000 </r>
       <r>   58.6280    0.0000 </r>
       <r>   59.1916    0.0000 </r>
       <r>   59.2533    0.0000 </r>
       <r>   60.0943    0.0000 </r>
       <r>   60.3760    0.0000 </r>
       <r>   61.2252    0.0000 </r>
       <r>   61.8975    0.0000 </r>
       <r>   62.6803    0.0000 </r>
       <r>   63.3562    0.0000 </r>
       <r>   63.8789    0.0000 </r>
       <r>   65.1259    0.0000 </r>
       <r>   65.7617    0.0000 </r>
       <r>   65.9296    0.0000 </r>
       <r>   66.2913    0.0000 </r>
       <r>   66.4442    0.0000 </r>
       <r>   66.6561    0.0000 </r>
       <r>   67.2765    0.0000 </r>
       <r>   67.4160    0.0000 </r>
       <r>   68.4435    0.0000 </r>
       <r>   69.8529    0.0000 </r>
       <r>   70.3789    0.0000 </r>
       <r>   70.5904    0.0000 </r>
       <r>   72.8354    0.0000 </r>
       <r>   73.0017    0.0000 </r>
       <r>   73.4016    0.0000 </r>
       <r>   73.7789    0.0000 </r>
       <r>   74.2615    0.0000 </r>
       <r>   75.0878    0.0000 </r>
       <r>   75.1031    0.0000 </r>
       <r>   76.4168    0.0000 </r>
       <r>   76.8760    0.0000 </r>
       <r>   77.4431    0.0000 </r>
       <r>   77.4994    0.0000 </r>
      </set>
      <set comment="kpoint 4">
       <r>  -20.7896    1.0000 </r>
       <r>   -8.8587    1.0000 </r>
       <r>   -8.4843    1.0000 </r>
       <r>   -7.3289    1.0000 </r>
       <r>    2.9809    0.0000 </r>
       <r>    3.9011    0.0000 </r>
       <r>    4.4666    0.0000 </r>
       <r>    6.1111    0.0000 </r>
       <r>    6.3695    0.0000 </r>
       <r>    6.4733    0.0000 </r>
       <r>    6.9372    0.0000 </r>
       <r>    9.7202    0.0000 </r>
       <r>   10.7965    0.0000 </r>
       <r>   10.9827    0.0000 </r>
       <r>   14.5330    0.0000 </r>
       <r>   15.8617    0.0000 </r>
       <r>   16.1175    0.0000 </r>
       <r>   19.0530    0.0000 </r>
       <r>   21.5816    0.0000 </r>
       <r>   22.1807    0.0000 </r>
       <r>   22.2936    0.0000 </r>
       <r>   22.6974    0.0000 </r>
       <r>   23.5735    0.0000 </r>
       <r>   23.7142    0.0000 </r>
       <r>   25.4601    0.0000 </r>
       <r>   25.7200    0.0000 </r>
       <r>   26.8028    0.0000 </r>
       <r>   28.1231    0.0000 </r>
       <r>   28.1500    0.0000 </r>
       <r>   29.0038    0.0000 </r>
       <r>   29.5181    0.0000 </r>
       <r>   29.8605    0.0000 </r>
       <r>   30.0330    0.0000 </r>
       <r>   30.3102    0.0000 </r>
       <r>   30.6888    0.0000 </r>
       <r>   30.7802    0.0000 </r>
       <r>   31.2029    0.0000 </r>
       <r>   31.3864    0.0000 </r>
       <r>   32.1823    0.0000 </r>
       <r>   32.6242    0.0000 </r>
       <r>   33.6288    0.0000 </r>
       <r>   33.6314    0.0000 </r>
       <r>   35.0163    0.0000 </r>
       <r>   35.2828    0.0000 </r>
       <r>   35.7363    0.0000 </r>
       <r>   35.9368    0.0000 </r>
       <r>   36.7974    0.0000 </r>
       <r>   37.5340    0.0000 </r>
       <r>   38.4324    0.0000 </r>
       <r>   39.5436    0.0000 </r>
       <r>   39.7492    0.0000 </r>
       <r>   40.6730    0.0000 </r>
       <r>   41.1102    0.0000 </r>
       <r>   41.3953    0.0000 </r>
       <r>   41.8606    0.0000 </r>
       <r>   42.1171    0.0000 </r>
       <r>   42.8413    0.0000 </r>
       <r>   42.9801    0.0000 </r>
       <r>   43.3639    0.0000 </r>
       <r>   43.4985    0.0000 </r>
       <r>   44.3765    0.0000 </r>
       <r>   45.4976    0.0000 </r>
       <r>   46.1834    0.0000 </r>
       <r>   46.3832    0.0000 </r>
       <r>   47.0790    0.0000 </r>
       <r>   47.8662    0.0000 </r>
       <r>   47.9900    0.0000 </r>
       <r>   48.4878    0.0000 </r>
       <r>   49.1530    0.0000 </r>
       <r>   49.3147    0.0000 </r>
       <r>   49.4990    0.0000 </r>
       <r>   49.9973    0.0000 </r>
       <r>   50.1892    0.0000 </r>
       <r>   50.5790    0.0000 </r>
       <r>   50.6778    0.0000 </r>
       <r>   51.3392    0.0000 </r>
       <r>   51.5537    0.0000 </r>
       <r>   51.6847    0.0000 </r>
       <r>   53.5408    0.0000 </r>
       <r>   53.7957    0.0000 </r>
       <r>   54.2629    0.0000 </r>
       <r>   54.7335    0.0000 </r>
       <r>   55.2504    0.0000 </r>
       <r>   55.8089    0.0000 </r>
       <r>   56.4737    0.0000 </r>
       <r>   56.4792    0.0000 </r>
       <r>   57.2552    0.0000 </r>
       <r>   57.2590    0.0000 </r>
       <r>   57.4826    0.0000 </r>
       <r>   57.5213    0.0000 </r>
       <r>   58.0714    0.0000 </r>
       <r>   58.0818    0.0000 </r>
       <r>   59.1232    0.0000 </r>
       <r>   59.6333    0.0000 </r>
       <r>   60.0719    0.0000 </r>
       <r>   60.5371    0.0000 </r>
       <r>   61.3783    0.0000 </r>
       <r>   61.4729    0.0000 </r>
       <r>   62.1814    0.0000 </r>
       <r>   62.5913    0.0000 </r>
       <r>   62.6495    0.0000 </r>
       <r>   63.8905    0.0000 </r>
       <r>   64.0678    0.0000 </r>
       <r>   64.3129    0.0000 </r>
       <r>   64.5935    0.0000 </r>
       <r>   65.7084    0.0000 </r>
       <r>   65.8948    0.0000 </r>
       <r>   66.6744    0.0000 </r>
       <r>   67.2989    0.0000 </r>
       <r>   68.1604    0.0000 </r>
       <r>   68.6376    0.0000 </r>
       <r>   69.5429    0.0000 </r>
       <r>   69.5794    0.0000 </r>
       <r>   69.5970    0.0000 </r>
       <r>   69.6909    0.0000 </r>
       <r>   70.2126    0.0000 </r>
       <r>   71.4688    0.0000 </r>
       <r>   74.3853    0.0000 </r>
       <r>   74.3889    0.0000 </r>
       <r>   74.7762    0.0000 </r>
       <r>   75.0229    0.0000 </r>
       <r>   75.1625    0.0000 </r>
       <r>   75.5646    0.0000 </r>
       <r>   76.2551    0.0000 </r>
       <r>   76.4460    0.0000 </r>
       <r>   77.5399    0.0000 </r>
       <r>   77.7599    0.0000 </r>
       <r>   78.0897    0.0000 </r>
      </set>
      <set comment="kpoint 5">
       <r>  -19.9445    1.0000 </r>
       <r>  -10.6092    1.0000 </r>
       <r>   -8.0067    1.0000 </r>
       <r>   -7.4935    1.0000 </r>
       <r>    4.1483    0.0000 </r>
       <r>    4.5020    0.0000 </r>
       <r>    5.1427    0.0000 </r>
       <r>    5.6548    0.0000 </r>
       <r>    6.1146    0.0000 </r>
       <r>    7.3239    0.0000 </r>
       <r>    8.0798    0.0000 </r>
       <r>   10.8361    0.0000 </r>
       <r>   11.9561    0.0000 </r>
       <r>   12.8666    0.0000 </r>
       <r>   15.3169    0.0000 </r>
       <r>   16.7004    0.0000 </r>
       <r>   17.2270    0.0000 </r>
       <r>   17.7901    0.0000 </r>
       <r>   19.5851    0.0000 </r>
       <r>   20.2280    0.0000 </r>
       <r>   20.5189    0.0000 </r>
       <r>   21.3155    0.0000 </r>
       <r>   21.9317    0.0000 </r>
       <r>   22.9036    0.0000 </r>
       <r>   23.4247    0.0000 </r>
       <r>   23.7424    0.0000 </r>
       <r>   26.1531    0.0000 </r>
       <r>   26.1871    0.0000 </r>
       <r>   26.7817    0.0000 </r>
       <r>   27.9633    0.0000 </r>
       <r>   28.0389    0.0000 </r>
       <r>   28.3744    0.0000 </r>
       <r>   29.2982    0.0000 </r>
       <r>   29.4967    0.0000 </r>
       <r>   29.7979    0.0000 </r>
       <r>   30.2931    0.0000 </r>
       <r>   30.4076    0.0000 </r>
       <r>   30.8979    0.0000 </r>
       <r>   31.6023    0.0000 </r>
       <r>   31.8892    0.0000 </r>
       <r>   32.3617    0.0000 </r>
       <r>   32.5201    0.0000 </r>
       <r>   32.9566    0.0000 </r>
       <r>   33.6999    0.0000 </r>
       <r>   34.6864    0.0000 </r>
       <r>   35.4695    0.0000 </r>
       <r>   36.5142    0.0000 </r>
       <r>   36.6210    0.0000 </r>
       <r>   38.2795    0.0000 </r>
       <r>   38.6457    0.0000 </r>
       <r>   38.8141    0.0000 </r>
       <r>   39.5313    0.0000 </r>
       <r>   40.6676    0.0000 </r>
       <r>   40.7778    0.0000 </r>
       <r>   41.4088    0.0000 </r>
       <r>   41.5462    0.0000 </r>
       <r>   42.3278    0.0000 </r>
       <r>   44.1214    0.0000 </r>
       <r>   45.1970    0.0000 </r>
       <r>   46.0510    0.0000 </r>
       <r>   46.2005    0.0000 </r>
       <r>   46.4348    0.0000 </r>
       <r>   46.6441    0.0000 </r>
       <r>   46.7215    0.0000 </r>
       <r>   47.1364    0.0000 </r>
       <r>   47.5023    0.0000 </r>
       <r>   47.9445    0.0000 </r>
       <r>   48.8088    0.0000 </r>
       <r>   48.9066    0.0000 </r>
       <r>   49.2899    0.0000 </r>
       <r>   50.1971    0.0000 </r>
       <r>   52.0020    0.0000 </r>
       <r>   52.2205    0.0000 </r>
       <r>   52.8422    0.0000 </r>
       <r>   53.5186    0.0000 </r>
       <r>   53.6243    0.0000 </r>
       <r>   54.5743    0.0000 </r>
       <r>   54.6313    0.0000 </r>
       <r>   55.0102    0.0000 </r>
       <r>   55.1223    0.0000 </r>
       <r>   55.3980    0.0000 </r>
       <r>   55.8025    0.0000 </r>
       <r>   56.1665    0.0000 </r>
       <r>   56.5053    0.0000 </r>
       <r>   57.3211    0.0000 </r>
       <r>   57.4300    0.0000 </r>
       <r>   58.0091    0.0000 </r>
       <r>   58.0314    0.0000 </r>
       <r>   60.4708    0.0000 </r>
       <r>   60.6091    0.0000 </r>
       <r>   61.1853    0.0000 </r>
       <r>   61.9122    0.0000 </r>
       <r>   62.5776    0.0000 </r>
       <r>   63.0744    0.0000 </r>
       <r>   63.2687    0.0000 </r>
       <r>   63.3002    0.0000 </r>
       <r>   63.4498    0.0000 </r>
       <r>   63.7968    0.0000 </r>
       <r>   64.5706    0.0000 </r>
       <r>   64.7993    0.0000 </r>
       <r>   64.9967    0.0000 </r>
       <r>   65.3595    0.0000 </r>
       <r>   65.4098    0.0000 </r>
       <r>   65.6419    0.0000 </r>
       <r>   65.9581    0.0000 </r>
       <r>   66.3016    0.0000 </r>
       <r>   66.5542    0.0000 </r>
       <r>   67.3829    0.0000 </r>
       <r>   68.2658    0.0000 </r>
       <r>   69.1957    0.0000 </r>
       <r>   69.3255    0.0000 </r>
       <r>   71.3618    0.0000 </r>
       <r>   71.4922    0.0000 </r>
       <r>   72.0253    0.0000 </r>
       <r>   72.7932    0.0000 </r>
       <r>   73.0638    0.0000 </r>
       <r>   74.1229    0.0000 </r>
       <r>   74.1874    0.0000 </r>
       <r>   74.3155    0.0000 </r>
       <r>   74.5983    0.0000 </r>
       <r>   75.3966    0.0000 </r>
       <r>   75.5109    0.0000 </r>
       <r>   75.6164    0.0000 </r>
       <r>   75.7219    0.0000 </r>
       <r>   76.1383    0.0000 </r>
       <r>   77.1757    0.0000 </r>
       <r>   77.5748    0.0000 </r>
       <r>   77.7944    0.0000 </r>
      </set>
      <set comment="kpoint 6">
       <r>  -18.9133    1.0000 </r>
       <r>  -12.3641    1.0000 </r>
       <r>   -8.5471    1.0000 </r>
       <r>   -6.3345    1.0000 </r>
       <r>    2.6450    0.0000 </r>
       <r>    5.5362    0.0000 </r>
       <r>    5.9059    0.0000 </r>
       <r>    6.5504    0.0000 </r>
       <r>    7.1516    0.0000 </r>
       <r>    8.7575    0.0000 </r>
       <r>    9.5226    0.0000 </r>
       <r>   12.1426    0.0000 </r>
       <r>   13.3753    0.0000 </r>
       <r>   13.9264    0.0000 </r>
       <r>   15.1699    0.0000 </r>
       <r>   16.1955    0.0000 </r>
       <r>   16.8945    0.0000 </r>
       <r>   17.1810    0.0000 </r>
       <r>   18.1973    0.0000 </r>
       <r>   18.5488    0.0000 </r>
       <r>   18.8944    0.0000 </r>
       <r>   19.8246    0.0000 </r>
       <r>   20.7481    0.0000 </r>
       <r>   21.0052    0.0000 </r>
       <r>   22.8305    0.0000 </r>
       <r>   23.9351    0.0000 </r>
       <r>   24.7250    0.0000 </r>
       <r>   24.9946    0.0000 </r>
       <r>   25.7507    0.0000 </r>
       <r>   26.9648    0.0000 </r>
       <r>   27.4259    0.0000 </r>
       <r>   27.6549    0.0000 </r>
       <r>   28.0274    0.0000 </r>
       <r>   28.5157    0.0000 </r>
       <r>   29.3157    0.0000 </r>
       <r>   29.6256    0.0000 </r>
       <r>   29.6531    0.0000 </r>
       <r>   29.7527    0.0000 </r>
       <r>   30.3400    0.0000 </r>
       <r>   31.4161    0.0000 </r>
       <r>   31.8541    0.0000 </r>
       <r>   32.0558    0.0000 </r>
       <r>   32.8891    0.0000 </r>
       <r>   33.4523    0.0000 </r>
       <r>   33.9522    0.0000 </r>
       <r>   34.6299    0.0000 </r>
       <r>   35.8186    0.0000 </r>
       <r>   35.8207    0.0000 </r>
       <r>   36.1404    0.0000 </r>
       <r>   37.7207    0.0000 </r>
       <r>   38.2858    0.0000 </r>
       <r>   39.1724    0.0000 </r>
       <r>   40.2410    0.0000 </r>
       <r>   40.3955    0.0000 </r>
       <r>   41.3065    0.0000 </r>
       <r>   42.2067    0.0000 </r>
       <r>   42.5644    0.0000 </r>
       <r>   43.0563    0.0000 </r>
       <r>   43.7696    0.0000 </r>
       <r>   45.2894    0.0000 </r>
       <r>   45.7350    0.0000 </r>
       <r>   46.8310    0.0000 </r>
       <r>   47.2150    0.0000 </r>
       <r>   48.3430    0.0000 </r>
       <r>   48.6011    0.0000 </r>
       <r>   49.4294    0.0000 </r>
       <r>   50.3038    0.0000 </r>
       <r>   50.3707    0.0000 </r>
       <r>   50.9198    0.0000 </r>
       <r>   51.7098    0.0000 </r>
       <r>   52.3922    0.0000 </r>
       <r>   52.5191    0.0000 </r>
       <r>   52.8113    0.0000 </r>
       <r>   53.7536    0.0000 </r>
       <r>   53.7743    0.0000 </r>
       <r>   53.8062    0.0000 </r>
       <r>   55.3299    0.0000 </r>
       <r>   55.7157    0.0000 </r>
       <r>   56.1954    0.0000 </r>
       <r>   56.3293    0.0000 </r>
       <r>   57.2394    0.0000 </r>
       <r>   58.5986    0.0000 </r>
       <r>   59.0030    0.0000 </r>
       <r>   59.1991    0.0000 </r>
       <r>   59.8550    0.0000 </r>
       <r>   60.7426    0.0000 </r>
       <r>   60.9740    0.0000 </r>
       <r>   61.3800    0.0000 </r>
       <r>   61.8701    0.0000 </r>
       <r>   62.2072    0.0000 </r>
       <r>   62.3040    0.0000 </r>
       <r>   63.2447    0.0000 </r>
       <r>   63.3554    0.0000 </r>
       <r>   63.5388    0.0000 </r>
       <r>   64.3130    0.0000 </r>
       <r>   64.5330    0.0000 </r>
       <r>   64.9064    0.0000 </r>
       <r>   65.0861    0.0000 </r>
       <r>   65.7741    0.0000 </r>
       <r>   65.8072    0.0000 </r>
       <r>   66.4239    0.0000 </r>
       <r>   67.5973    0.0000 </r>
       <r>   68.1285    0.0000 </r>
       <r>   68.3109    0.0000 </r>
       <r>   69.2590    0.0000 </r>
       <r>   69.3004    0.0000 </r>
       <r>   69.8969    0.0000 </r>
       <r>   70.1980    0.0000 </r>
       <r>   70.4160    0.0000 </r>
       <r>   71.4135    0.0000 </r>
       <r>   71.7180    0.0000 </r>
       <r>   71.9543    0.0000 </r>
       <r>   72.0058    0.0000 </r>
       <r>   72.4526    0.0000 </r>
       <r>   72.7618    0.0000 </r>
       <r>   73.0943    0.0000 </r>
       <r>   73.6054    0.0000 </r>
       <r>   74.4002    0.0000 </r>
       <r>   74.4329    0.0000 </r>
       <r>   74.7197    0.0000 </r>
       <r>   75.1224    0.0000 </r>
       <r>   75.1609    0.0000 </r>
       <r>   75.4157    0.0000 </r>
       <r>   75.4356    0.0000 </r>
       <r>   75.9548    0.0000 </r>
       <r>   75.9934    0.0000 </r>
       <r>   76.7007    0.0000 </r>
       <r>   76.8040    0.0000 </r>
      </set>
      <set comment="kpoint 7">
       <r>  -17.7074    1.0000 </r>
       <r>  -14.0507    1.0000 </r>
       <r>   -8.9129    1.0000 </r>
       <r>   -5.1264    1.0000 </r>
       <r>    0.9276    0.0000 </r>
       <r>    5.6732    0.0000 </r>
       <r>    7.3143    0.0000 </r>
       <r>    8.2513    0.0000 </r>
       <r>    8.9058    0.0000 </r>
       <r>   10.4296    0.0000 </r>
       <r>   11.2341    0.0000 </r>
       <r>   12.3730    0.0000 </r>
       <r>   13.0150    0.0000 </r>
       <r>   13.9503    0.0000 </r>
       <r>   14.3506    0.0000 </r>
       <r>   15.0399    0.0000 </r>
       <r>   15.4831    0.0000 </r>
       <r>   16.1500    0.0000 </r>
       <r>   17.2016    0.0000 </r>
       <r>   17.9334    0.0000 </r>
       <r>   19.3207    0.0000 </r>
       <r>   19.9831    0.0000 </r>
       <r>   20.0053    0.0000 </r>
       <r>   20.2706    0.0000 </r>
       <r>   21.4624    0.0000 </r>
       <r>   22.7379    0.0000 </r>
       <r>   24.8695    0.0000 </r>
       <r>   25.0571    0.0000 </r>
       <r>   25.4916    0.0000 </r>
       <r>   26.1211    0.0000 </r>
       <r>   26.7439    0.0000 </r>
       <r>   26.9606    0.0000 </r>
       <r>   26.9879    0.0000 </r>
       <r>   27.7292    0.0000 </r>
       <r>   28.6358    0.0000 </r>
       <r>   29.0261    0.0000 </r>
       <r>   29.2426    0.0000 </r>
       <r>   29.3716    0.0000 </r>
       <r>   29.7785    0.0000 </r>
       <r>   30.9166    0.0000 </r>
       <r>   31.6890    0.0000 </r>
       <r>   31.7101    0.0000 </r>
       <r>   32.4694    0.0000 </r>
       <r>   32.8666    0.0000 </r>
       <r>   33.4072    0.0000 </r>
       <r>   34.1000    0.0000 </r>
       <r>   35.2755    0.0000 </r>
       <r>   35.3095    0.0000 </r>
       <r>   35.8657    0.0000 </r>
       <r>   37.1922    0.0000 </r>
       <r>   37.2610    0.0000 </r>
       <r>   38.9987    0.0000 </r>
       <r>   39.1380    0.0000 </r>
       <r>   40.3776    0.0000 </r>
       <r>   40.8910    0.0000 </r>
       <r>   41.2786    0.0000 </r>
       <r>   42.4480    0.0000 </r>
       <r>   43.1062    0.0000 </r>
       <r>   44.3822    0.0000 </r>
       <r>   45.0899    0.0000 </r>
       <r>   45.7308    0.0000 </r>
       <r>   46.9696    0.0000 </r>
       <r>   47.4817    0.0000 </r>
       <r>   48.7326    0.0000 </r>
       <r>   49.9085    0.0000 </r>
       <r>   50.1256    0.0000 </r>
       <r>   51.0403    0.0000 </r>
       <r>   52.2195    0.0000 </r>
       <r>   52.3947    0.0000 </r>
       <r>   53.3126    0.0000 </r>
       <r>   53.8470    0.0000 </r>
       <r>   54.1822    0.0000 </r>
       <r>   54.1969    0.0000 </r>
       <r>   55.2888    0.0000 </r>
       <r>   55.4313    0.0000 </r>
       <r>   55.7902    0.0000 </r>
       <r>   56.3189    0.0000 </r>
       <r>   56.3878    0.0000 </r>
       <r>   57.4218    0.0000 </r>
       <r>   59.0813    0.0000 </r>
       <r>   59.5437    0.0000 </r>
       <r>   59.7535    0.0000 </r>
       <r>   60.2770    0.0000 </r>
       <r>   60.3946    0.0000 </r>
       <r>   61.1856    0.0000 </r>
       <r>   61.9853    0.0000 </r>
       <r>   62.6845    0.0000 </r>
       <r>   62.9152    0.0000 </r>
       <r>   62.9205    0.0000 </r>
       <r>   63.2385    0.0000 </r>
       <r>   63.6198    0.0000 </r>
       <r>   63.9325    0.0000 </r>
       <r>   64.8214    0.0000 </r>
       <r>   65.0163    0.0000 </r>
       <r>   65.6073    0.0000 </r>
       <r>   65.6151    0.0000 </r>
       <r>   65.7489    0.0000 </r>
       <r>   66.4264    0.0000 </r>
       <r>   66.7585    0.0000 </r>
       <r>   67.1573    0.0000 </r>
       <r>   67.5034    0.0000 </r>
       <r>   67.7575    0.0000 </r>
       <r>   68.0331    0.0000 </r>
       <r>   69.4235    0.0000 </r>
       <r>   69.4677    0.0000 </r>
       <r>   69.9468    0.0000 </r>
       <r>   70.1616    0.0000 </r>
       <r>   70.2301    0.0000 </r>
       <r>   70.6377    0.0000 </r>
       <r>   71.3088    0.0000 </r>
       <r>   71.6475    0.0000 </r>
       <r>   72.0610    0.0000 </r>
       <r>   72.0944    0.0000 </r>
       <r>   72.1755    0.0000 </r>
       <r>   72.3515    0.0000 </r>
       <r>   72.7935    0.0000 </r>
       <r>   73.5645    0.0000 </r>
       <r>   73.6273    0.0000 </r>
       <r>   74.0247    0.0000 </r>
       <r>   74.1608    0.0000 </r>
       <r>   74.2736    0.0000 </r>
       <r>   74.2892    0.0000 </r>
       <r>   74.9818    0.0000 </r>
       <r>   75.0627    0.0000 </r>
       <r>   75.3064    0.0000 </r>
       <r>   75.5703    0.0000 </r>
       <r>   75.7792    0.0000 </r>
       <r>   77.2204    0.0000 </r>
      </set>
      <set comment="kpoint 8">
       <r>  -16.3877    1.0000 </r>
       <r>  -15.5750    1.0000 </r>
       <r>   -9.0846    1.0000 </r>
       <r>   -4.2958    1.0000 </r>
       <r>   -0.1309    0.0000 </r>
       <r>    5.6203    0.0000 </r>
       <r>    9.2574    0.0000 </r>
       <r>   10.1566    0.0000 </r>
       <r>   10.2045    0.0000 </r>
       <r>   10.9388    0.0000 </r>
       <r>   11.1240    0.0000 </r>
       <r>   11.9487    0.0000 </r>
       <r>   12.3162    0.0000 </r>
       <r>   13.1980    0.0000 </r>
       <r>   13.3048    0.0000 </r>
       <r>   14.1334    0.0000 </r>
       <r>   15.0525    0.0000 </r>
       <r>   16.6461    0.0000 </r>
       <r>   16.9016    0.0000 </r>
       <r>   17.5830    0.0000 </r>
       <r>   18.5422    0.0000 </r>
       <r>   19.5131    0.0000 </r>
       <r>   20.1083    0.0000 </r>
       <r>   21.4098    0.0000 </r>
       <r>   21.5461    0.0000 </r>
       <r>   22.4357    0.0000 </r>
       <r>   23.6077    0.0000 </r>
       <r>   24.4840    0.0000 </r>
       <r>   24.6992    0.0000 </r>
       <r>   26.0445    0.0000 </r>
       <r>   26.3399    0.0000 </r>
       <r>   26.9441    0.0000 </r>
       <r>   27.6667    0.0000 </r>
       <r>   27.6766    0.0000 </r>
       <r>   28.0782    0.0000 </r>
       <r>   28.7396    0.0000 </r>
       <r>   29.0777    0.0000 </r>
       <r>   29.4696    0.0000 </r>
       <r>   29.9317    0.0000 </r>
       <r>   30.0769    0.0000 </r>
       <r>   31.4648    0.0000 </r>
       <r>   31.5014    0.0000 </r>
       <r>   31.5720    0.0000 </r>
       <r>   32.2123    0.0000 </r>
       <r>   32.6518    0.0000 </r>
       <r>   34.8147    0.0000 </r>
       <r>   35.1476    0.0000 </r>
       <r>   35.2775    0.0000 </r>
       <r>   36.6888    0.0000 </r>
       <r>   36.7701    0.0000 </r>
       <r>   37.5740    0.0000 </r>
       <r>   38.2558    0.0000 </r>
       <r>   38.3773    0.0000 </r>
       <r>   38.8658    0.0000 </r>
       <r>   40.3130    0.0000 </r>
       <r>   41.1131    0.0000 </r>
       <r>   43.1824    0.0000 </r>
       <r>   43.3602    0.0000 </r>
       <r>   44.5514    0.0000 </r>
       <r>   46.1274    0.0000 </r>
       <r>   46.5170    0.0000 </r>
       <r>   47.4086    0.0000 </r>
       <r>   47.5586    0.0000 </r>
       <r>   47.9545    0.0000 </r>
       <r>   48.7283    0.0000 </r>
       <r>   50.6054    0.0000 </r>
       <r>   51.7816    0.0000 </r>
       <r>   52.1969    0.0000 </r>
       <r>   52.9789    0.0000 </r>
       <r>   54.3263    0.0000 </r>
       <r>   55.0647    0.0000 </r>
       <r>   56.0227    0.0000 </r>
       <r>   56.4147    0.0000 </r>
       <r>   57.1229    0.0000 </r>
       <r>   57.5148    0.0000 </r>
       <r>   57.6836    0.0000 </r>
       <r>   58.0035    0.0000 </r>
       <r>   58.0634    0.0000 </r>
       <r>   58.3089    0.0000 </r>
       <r>   58.8867    0.0000 </r>
       <r>   59.3294    0.0000 </r>
       <r>   59.6442    0.0000 </r>
       <r>   60.4085    0.0000 </r>
       <r>   61.3431    0.0000 </r>
       <r>   61.4039    0.0000 </r>
       <r>   62.1984    0.0000 </r>
       <r>   62.7086    0.0000 </r>
       <r>   63.0698    0.0000 </r>
       <r>   63.5689    0.0000 </r>
       <r>   63.9814    0.0000 </r>
       <r>   64.1857    0.0000 </r>
       <r>   64.4379    0.0000 </r>
       <r>   65.0625    0.0000 </r>
       <r>   65.4243    0.0000 </r>
       <r>   65.7193    0.0000 </r>
       <r>   65.8850    0.0000 </r>
       <r>   66.3560    0.0000 </r>
       <r>   66.8288    0.0000 </r>
       <r>   66.9196    0.0000 </r>
       <r>   66.9358    0.0000 </r>
       <r>   67.6622    0.0000 </r>
       <r>   67.8972    0.0000 </r>
       <r>   68.2435    0.0000 </r>
       <r>   68.5156    0.0000 </r>
       <r>   68.8644    0.0000 </r>
       <r>   68.9920    0.0000 </r>
       <r>   69.3736    0.0000 </r>
       <r>   69.5736    0.0000 </r>
       <r>   69.6185    0.0000 </r>
       <r>   69.8804    0.0000 </r>
       <r>   70.0107    0.0000 </r>
       <r>   70.2246    0.0000 </r>
       <r>   70.6255    0.0000 </r>
       <r>   71.4894    0.0000 </r>
       <r>   71.9405    0.0000 </r>
       <r>   72.7812    0.0000 </r>
       <r>   72.8697    0.0000 </r>
       <r>   72.9964    0.0000 </r>
       <r>   73.9080    0.0000 </r>
       <r>   73.9804    0.0000 </r>
       <r>   74.4806    0.0000 </r>
       <r>   74.7426    0.0000 </r>
       <r>   75.2339    0.0000 </r>
       <r>   75.2646    0.0000 </r>
       <r>   75.9671    0.0000 </r>
       <r>   76.1922    0.0000 </r>
       <r>   76.6436    0.0000 </r>
       <r>   77.7176    0.0000 </r>
      </set>
      <set comment="kpoint 9">
       <r>  -17.1200    1.0000 </r>
       <r>  -14.7584    1.0000 </r>
       <r>   -9.0545    1.0000 </r>
       <r>   -4.6502    1.0000 </r>
       <r>    0.3008    0.0000 </r>
       <r>    5.6674    0.0000 </r>
       <r>    8.1611    0.0000 </r>
       <r>    9.0993    0.0000 </r>
       <r>    9.7946    0.0000 </r>
       <r>   11.2262    0.0000 </r>
       <r>   11.4218    0.0000 </r>
       <r>   12.0887    0.0000 </r>
       <r>   12.3022    0.0000 </r>
       <r>   13.2407    0.0000 </r>
       <r>   14.0000    0.0000 </r>
       <r>   14.9306    0.0000 </r>
       <r>   15.3638    0.0000 </r>
       <r>   15.8313    0.0000 </r>
       <r>   16.8043    0.0000 </r>
       <r>   18.6778    0.0000 </r>
       <r>   19.0118    0.0000 </r>
       <r>   19.3410    0.0000 </r>
       <r>   19.9905    0.0000 </r>
       <r>   20.8417    0.0000 </r>
       <r>   21.4169    0.0000 </r>
       <r>   22.3700    0.0000 </r>
       <r>   24.2574    0.0000 </r>
       <r>   24.4244    0.0000 </r>
       <r>   25.0327    0.0000 </r>
       <r>   25.8955    0.0000 </r>
       <r>   26.2317    0.0000 </r>
       <r>   26.8792    0.0000 </r>
       <r>   27.0723    0.0000 </r>
       <r>   27.8543    0.0000 </r>
       <r>   28.1820    0.0000 </r>
       <r>   28.6459    0.0000 </r>
       <r>   29.3572    0.0000 </r>
       <r>   29.4946    0.0000 </r>
       <r>   29.7459    0.0000 </r>
       <r>   30.4644    0.0000 </r>
       <r>   31.6928    0.0000 </r>
       <r>   31.7718    0.0000 </r>
       <r>   32.1838    0.0000 </r>
       <r>   32.3369    0.0000 </r>
       <r>   32.7207    0.0000 </r>
       <r>   34.4583    0.0000 </r>
       <r>   35.3743    0.0000 </r>
       <r>   35.4112    0.0000 </r>
       <r>   36.3178    0.0000 </r>
       <r>   36.9311    0.0000 </r>
       <r>   37.4103    0.0000 </r>
       <r>   38.2924    0.0000 </r>
       <r>   38.6071    0.0000 </r>
       <r>   39.9835    0.0000 </r>
       <r>   40.5153    0.0000 </r>
       <r>   41.4482    0.0000 </r>
       <r>   42.9087    0.0000 </r>
       <r>   43.3669    0.0000 </r>
       <r>   44.3594    0.0000 </r>
       <r>   45.4529    0.0000 </r>
       <r>   46.1253    0.0000 </r>
       <r>   47.8233    0.0000 </r>
       <r>   47.8492    0.0000 </r>
       <r>   49.0494    0.0000 </r>
       <r>   49.3983    0.0000 </r>
       <r>   50.4280    0.0000 </r>
       <r>   50.9267    0.0000 </r>
       <r>   52.3729    0.0000 </r>
       <r>   52.4289    0.0000 </r>
       <r>   54.1645    0.0000 </r>
       <r>   54.7988    0.0000 </r>
       <r>   55.3195    0.0000 </r>
       <r>   55.8339    0.0000 </r>
       <r>   56.0111    0.0000 </r>
       <r>   56.9590    0.0000 </r>
       <r>   58.1302    0.0000 </r>
       <r>   58.9662    0.0000 </r>
       <r>   59.0296    0.0000 </r>
       <r>   59.1789    0.0000 </r>
       <r>   59.2536    0.0000 </r>
       <r>   60.2401    0.0000 </r>
       <r>   60.4029    0.0000 </r>
       <r>   60.8632    0.0000 </r>
       <r>   61.1485    0.0000 </r>
       <r>   61.5284    0.0000 </r>
       <r>   61.9055    0.0000 </r>
       <r>   62.1112    0.0000 </r>
       <r>   62.3466    0.0000 </r>
       <r>   62.4029    0.0000 </r>
       <r>   62.8157    0.0000 </r>
       <r>   62.8726    0.0000 </r>
       <r>   63.2968    0.0000 </r>
       <r>   63.9130    0.0000 </r>
       <r>   64.5297    0.0000 </r>
       <r>   64.5902    0.0000 </r>
       <r>   64.8833    0.0000 </r>
       <r>   65.3517    0.0000 </r>
       <r>   65.4477    0.0000 </r>
       <r>   65.5682    0.0000 </r>
       <r>   66.1836    0.0000 </r>
       <r>   66.3687    0.0000 </r>
       <r>   67.5065    0.0000 </r>
       <r>   67.5659    0.0000 </r>
       <r>   68.3102    0.0000 </r>
       <r>   68.5968    0.0000 </r>
       <r>   69.1200    0.0000 </r>
       <r>   69.2145    0.0000 </r>
       <r>   70.2509    0.0000 </r>
       <r>   70.3306    0.0000 </r>
       <r>   70.9951    0.0000 </r>
       <r>   71.1479    0.0000 </r>
       <r>   71.4310    0.0000 </r>
       <r>   71.7513    0.0000 </r>
       <r>   72.0255    0.0000 </r>
       <r>   72.4450    0.0000 </r>
       <r>   72.6864    0.0000 </r>
       <r>   73.3171    0.0000 </r>
       <r>   73.5106    0.0000 </r>
       <r>   73.8981    0.0000 </r>
       <r>   74.1224    0.0000 </r>
       <r>   74.5430    0.0000 </r>
       <r>   74.7178    0.0000 </r>
       <r>   75.1225    0.0000 </r>
       <r>   75.2037    0.0000 </r>
       <r>   76.6514    0.0000 </r>
       <r>   76.6877    0.0000 </r>
       <r>   77.5137    0.0000 </r>
       <r>   78.0400    0.0000 </r>
      </set>
      <set comment="kpoint 10">
       <r>  -18.3935    1.0000 </r>
       <r>  -13.1166    1.0000 </r>
       <r>   -8.8236    1.0000 </r>
       <r>   -5.7764    1.0000 </r>
       <r>    1.7987    0.0000 </r>
       <r>    5.7887    0.0000 </r>
       <r>    6.3783    0.0000 </r>
       <r>    7.2905    0.0000 </r>
       <r>    7.9141    0.0000 </r>
       <r>    9.4875    0.0000 </r>
       <r>   10.2646    0.0000 </r>
       <r>   12.7094    0.0000 </r>
       <r>   13.6477    0.0000 </r>
       <r>   14.0907    0.0000 </r>
[...]
       <r>   17.3504    0.0000 </r>
       <r>   18.5293    0.0000 </r>
       <r>   18.7590    0.0000 </r>
       <r>   20.1330    0.0000 </r>
       <r>   20.7486    0.0000 </r>
       <r>   21.2588    0.0000 </r>
       <r>   22.0533    0.0000 </r>
       <r>   23.3080    0.0000 </r>
       <r>   23.6785    0.0000 </r>
       <r>   25.9358    0.0000 </r>
       <r>   26.7429    0.0000 </r>
       <r>   28.0028    0.0000 </r>
       <r>   28.7906    0.0000 </r>
       <r>   28.7908    0.0000 </r>
       <r>   29.2083    0.0000 </r>
       <r>   30.2135    0.0000 </r>
       <r>   30.2259    0.0000 </r>
       <r>   30.2526    0.0000 </r>
       <r>   30.4294    0.0000 </r>
       <r>   31.0061    0.0000 </r>
       <r>   32.0028    0.0000 </r>
       <r>   32.1773    0.0000 </r>
       <r>   32.5482    0.0000 </r>
       <r>   32.9526    0.0000 </r>
       <r>   34.1786    0.0000 </r>
       <r>   34.9956    0.0000 </r>
       <r>   35.1935    0.0000 </r>
       <r>   36.2173    0.0000 </r>
       <r>   36.4555    0.0000 </r>
       <r>   36.9015    0.0000 </r>
       <r>   37.1431    0.0000 </r>
       <r>   37.4685    0.0000 </r>
       <r>   38.4424    0.0000 </r>
       <r>   40.3915    0.0000 </r>
       <r>   41.7145    0.0000 </r>
       <r>   41.7422    0.0000 </r>
       <r>   42.0720    0.0000 </r>
       <r>   42.5651    0.0000 </r>
       <r>   45.0763    0.0000 </r>
       <r>   45.1250    0.0000 </r>
       <r>   47.3530    0.0000 </r>
       <r>   47.4167    0.0000 </r>
       <r>   48.0344    0.0000 </r>
       <r>   48.1448    0.0000 </r>
       <r>   48.3085    0.0000 </r>
       <r>   49.1210    0.0000 </r>
       <r>   49.2716    0.0000 </r>
       <r>   52.0400    0.0000 </r>
       <r>   53.1110    0.0000 </r>
       <r>   53.3078    0.0000 </r>
       <r>   55.5343    0.0000 </r>
       <r>   55.7205    0.0000 </r>
       <r>   55.8821    0.0000 </r>
       <r>   55.8883    0.0000 </r>
       <r>   56.1073    0.0000 </r>
       <r>   57.6969    0.0000 </r>
       <r>   57.7104    0.0000 </r>
       <r>   57.9195    0.0000 </r>
       <r>   58.0499    0.0000 </r>
       <r>   58.8756    0.0000 </r>
       <r>   59.8766    0.0000 </r>
       <r>   60.6194    0.0000 </r>
       <r>   61.0827    0.0000 </r>
       <r>   61.1181    0.0000 </r>
       <r>   61.2374    0.0000 </r>
       <r>   62.3358    0.0000 </r>
       <r>   62.4833    0.0000 </r>
       <r>   63.1436    0.0000 </r>
       <r>   63.3535    0.0000 </r>
       <r>   63.4302    0.0000 </r>
       <r>   63.5159    0.0000 </r>
       <r>   64.1149    0.0000 </r>
       <r>   64.8952    0.0000 </r>
       <r>   64.9857    0.0000 </r>
       <r>   65.1566    0.0000 </r>
       <r>   65.2772    0.0000 </r>
       <r>   65.3128    0.0000 </r>
       <r>   65.4923    0.0000 </r>
       <r>   65.6390    0.0000 </r>
       <r>   65.7638    0.0000 </r>
       <r>   66.4294    0.0000 </r>
       <r>   66.4480    0.0000 </r>
       <r>   66.9738    0.0000 </r>
       <r>   67.2872    0.0000 </r>
       <r>   67.3520    0.0000 </r>
       <r>   67.5244    0.0000 </r>
       <r>   67.6361    0.0000 </r>
       <r>   67.6492    0.0000 </r>
       <r>   67.8957    0.0000 </r>
       <r>   68.0060    0.0000 </r>
       <r>   68.6568    0.0000 </r>
       <r>   69.6208    0.0000 </r>
       <r>   70.0105    0.0000 </r>
       <r>   70.1073    0.0000 </r>
       <r>   71.1468    0.0000 </r>
       <r>   71.4759    0.0000 </r>
       <r>   71.5797    0.0000 </r>
       <r>   71.9142    0.0000 </r>
       <r>   72.0621    0.0000 </r>
       <r>   72.3281    0.0000 </r>
       <r>   72.6812    0.0000 </r>
       <r>   72.8367    0.0000 </r>
       <r>   73.2994    0.0000 </r>
       <r>   73.4579    0.0000 </r>
       <r>   74.0886    0.0000 </r>
       <r>   74.5491    0.0000 </r>
       <r>   75.2405    0.0000 </r>
       <r>   75.4153    0.0000 </r>
       <r>   75.6692    0.0000 </r>
      </set>
     </set>
    </set>
   </array>
  </eigenvalues>
  <separator name="orbital magnetization" >
   <v name="MAGDIPOLOUT">      0.00000000      0.00000000      0.00000000</v>
  </separator>
  <dos>
   <i name="efermi">     -1.97752479 </i>
   <total>
    <array>
     <dimension dim="1">gridpoints</dimension>
     <dimension dim="2">spin</dimension>
     <field>energy</field>
     <field>total</field>
     <field>integrated</field>
     <set>
      <set comment="spin 1">
       <r>   -27.4094     0.0000     0.0000 </r>
       <r>   -27.0280     0.0000     0.0000 </r>
       <r>   -26.6467     0.0000     0.0000 </r>
       <r>   -26.2653     0.0000     0.0000 </r>
       <r>   -25.8839     0.0000     0.0000 </r>
       <r>   -25.5026     0.0000     0.0000 </r>
       <r>   -25.1212     0.0000     0.0000 </r>
       <r>   -24.7399     0.0000     0.0000 </r>
       <r>   -24.3585     0.0000     0.0000 </r>
       <r>   -23.9771     0.0000     0.0000 </r>
       <r>   -23.5958     0.0000     0.0000 </r>
       <r>   -23.2144     0.0000     0.0000 </r>
       <r>   -22.8331     0.0000     0.0000 </r>
       <r>   -22.4517     0.0000     0.0000 </r>
       <r>   -22.0704     0.1253     0.0478 </r>
       <r>   -21.6890     0.3060     0.1645 </r>
       <r>   -21.3076     0.2996     0.2787 </r>
       <r>   -20.9263     0.2373     0.3692 </r>
       <r>   -20.5449     0.3473     0.5017 </r>
       <r>   -20.1636     0.2518     0.5977 </r>
       <r>   -19.7822     0.3919     0.7471 </r>
       <r>   -19.4008     0.1925     0.8205 </r>
       <r>   -19.0195     0.3705     0.9618 </r>
       <r>   -18.6381     0.2246     1.0475 </r>
       <r>   -18.2568     0.4174     1.2067 </r>
       <r>   -17.8754     0.2824     1.3144 </r>
       <r>   -17.4941     0.2126     1.3955 </r>
       <r>   -17.1127     0.5420     1.6021 </r>
       <r>   -16.7313     0.2603     1.7014 </r>
       <r>   -16.3500     0.2114     1.7820 </r>
       <r>   -15.9686     0.3385     1.9111 </r>
       <r>   -15.5873     0.2010     1.9878 </r>
       <r>   -15.2059     0.3575     2.1241 </r>
       <r>   -14.8245     0.2450     2.2175 </r>
       <r>   -14.4432     0.4215     2.3783 </r>
       <r>   -14.0618     0.3230     2.5015 </r>
       <r>   -13.6805     0.3767     2.6451 </r>
       <r>   -13.2991     0.1569     2.7050 </r>
       <r>   -12.9177     0.4457     2.8750 </r>
       <r>   -12.5364     0.3184     2.9964 </r>
       <r>   -12.1550     0.3186     3.1179 </r>
       <r>   -11.7737     0.2837     3.2260 </r>
       <r>   -11.3923     0.5413     3.4325 </r>
       <r>   -11.0110     0.2659     3.5339 </r>
       <r>   -10.6296     0.4014     3.6870 </r>
       <r>   -10.2482     0.4483     3.8579 </r>
       <r>    -9.8669     0.6655     4.1117 </r>
       <r>    -9.4855     0.7244     4.3880 </r>
       <r>    -9.1042     0.7843     4.6871 </r>
       <r>    -8.7228     0.9338     5.0432 </r>
       <r>    -8.3414     0.7763     5.3392 </r>
       <r>    -7.9601     0.6067     5.5706 </r>
       <r>    -7.5787     0.8318     5.8878 </r>
       <r>    -7.1974     0.6691     6.1430 </r>
       <r>    -6.8160     0.4985     6.3330 </r>
       <r>    -6.4347     0.7552     6.6210 </r>
       <r>    -6.0533     0.4000     6.7736 </r>
       <r>    -5.6719     0.5812     6.9952 </r>
       <r>    -5.2906     0.6530     7.2443 </r>
       <r>    -4.9092     0.2979     7.3579 </r>
       <r>    -4.5279     0.5614     7.5719 </r>
       <r>    -4.1465     0.4724     7.7521 </r>
       <r>    -3.7651     0.1114     7.7946 </r>
       <r>    -3.3838     0.2886     7.9046 </r>
       <r>    -3.0024     0.1272     7.9531 </r>
       <r>    -2.6211     0.0201     7.9608 </r>
       <r>    -2.2397     0.1029     8.0000 </r>
       <r>    -1.8584     0.0000     8.0000 </r>
       <r>    -1.4770     0.0129     8.0049 </r>
       <r>    -1.0956     0.1100     8.0469 </r>
       <r>    -0.7143     0.0375     8.0612 </r>
       <r>    -0.3329     0.4800     8.2442 </r>
       <r>     0.0484     0.3268     8.3688 </r>
       <r>     0.4298     0.4458     8.5388 </r>
       <r>     0.8112     0.2163     8.6213 </r>
       <r>     1.1925     0.4421     8.7899 </r>
       <r>     1.5739     0.3548     8.9252 </r>
       <r>     1.9552     0.5769     9.1452 </r>
       <r>     2.3366     0.5505     9.3551 </r>
       <r>     2.7180     0.8537     9.6807 </r>
       <r>     3.0993     0.7896     9.9818 </r>
       <r>     3.4807     0.7331    10.2614 </r>
       <r>     3.8620     0.7848    10.5607 </r>
       <r>     4.2434     0.9356    10.9175 </r>
       <r>     4.6247     0.9580    11.2828 </r>
       <r>     5.0061     0.9525    11.6461 </r>
       <r>     5.3875     1.2905    12.1382 </r>
       <r>     5.7688     1.5607    12.7334 </r>
       <r>     6.1502     1.2529    13.2112 </r>
       <r>     6.5315     1.7848    13.8919 </r>
       <r>     6.9129     1.8441    14.5952 </r>
       <r>     7.2943     1.6233    15.2142 </r>
       <r>     7.6756     1.3681    15.7360 </r>
       <r>     8.0570     2.2226    16.5836 </r>
       <r>     8.4383     2.1442    17.4013 </r>
       <r>     8.8197     1.6345    18.0246 </r>
       <r>     9.2010     2.0034    18.7886 </r>
       <r>     9.5824     2.4196    19.7113 </r>
       <r>     9.9638     2.1586    20.5346 </r>
       <r>    10.3451     1.8726    21.2487 </r>
       <r>    10.7265     1.6237    21.8679 </r>
       <r>    11.1078     1.7968    22.5531 </r>
       <r>    11.4892     2.5058    23.5088 </r>
       <r>    11.8706     1.6420    24.1350 </r>
       <r>    12.2519     2.4986    25.0878 </r>
       <r>    12.6333     1.5327    25.6724 </r>
       <r>    13.0146     1.6311    26.2944 </r>
       <r>    13.3960     2.4170    27.2161 </r>
       <r>    13.7773     1.9080    27.9438 </r>
       <r>    14.1587     2.3900    28.8552 </r>
       <r>    14.5401     2.3665    29.7577 </r>
       <r>    14.9214     2.5040    30.7126 </r>
       <r>    15.3028     2.2829    31.5832 </r>
       <r>    15.6841     2.2509    32.4416 </r>
       <r>    16.0655     2.0023    33.2052 </r>
       <r>    16.4469     2.0185    33.9750 </r>
       <r>    16.8282     2.0240    34.7469 </r>
       <r>    17.2096     2.7005    35.7768 </r>
       <r>    17.5909     2.3752    36.6826 </r>
       <r>    17.9723     1.8683    37.3951 </r>
       <r>    18.3537     2.2497    38.2530 </r>
       <r>    18.7350     2.6770    39.2739 </r>
       <r>    19.1164     2.2277    40.1234 </r>
       <r>    19.4977     2.9463    41.2470 </r>
       <r>    19.8791     2.1692    42.0743 </r>
       <r>    20.2604     2.3292    42.9625 </r>
       <r>    20.6418     2.3107    43.8438 </r>
       <r>    21.0232     2.4406    44.7745 </r>
       <r>    21.4045     2.6009    45.7664 </r>
       <r>    21.7859     2.6478    46.7761 </r>
       <r>    22.1672     3.0346    47.9334 </r>
       <r>    22.5486     2.8328    49.0137 </r>
       <r>    22.9300     3.0511    50.1773 </r>
       <r>    23.3113     2.4472    51.1106 </r>
       <r>    23.6927     3.6609    52.5067 </r>
       <r>    24.0740     2.3515    53.4034 </r>
       <r>    24.4554     3.1099    54.5894 </r>
       <r>    24.8367     3.0746    55.7619 </r>
       <r>    25.2181     2.6796    56.7838 </r>
       <r>    25.5995     2.8010    57.8520 </r>
       <r>    25.9808     2.9999    58.9960 </r>
       <r>    26.3622     2.1269    59.8071 </r>
       <r>    26.7435     2.3381    60.6987 </r>
       <r>    27.1249     3.5066    62.0360 </r>
       <r>    27.5063     3.1181    63.2251 </r>
       <r>    27.8876     2.4727    64.1681 </r>
       <r>    28.2690     2.7229    65.2065 </r>
       <r>    28.6503     2.4514    66.1414 </r>
       <r>    29.0317     2.7151    67.1768 </r>
       <r>    29.4131     3.1015    68.3596 </r>
       <r>    29.7944     3.3408    69.6337 </r>
       <r>    30.1758     3.3933    70.9277 </r>
       <r>    30.5571     3.0207    72.0797 </r>
       <r>    30.9385     2.7692    73.1358 </r>
       <r>    31.3198     1.9451    73.8776 </r>
       <r>    31.7012     3.6590    75.2729 </r>
       <r>    32.0826     2.8987    76.3784 </r>
       <r>    32.4639     3.5756    77.7420 </r>
       <r>    32.8453     2.6209    78.7415 </r>
       <r>    33.2266     2.9240    79.8566 </r>
       <r>    33.6080     2.2211    80.7036 </r>
       <r>    33.9894     3.1629    81.9098 </r>
       <r>    34.3707     2.7981    82.9769 </r>
       <r>    34.7521     2.8598    84.0675 </r>
       <r>    35.1334     3.1293    85.2609 </r>
       <r>    35.5148     3.8489    86.7287 </r>
       <r>    35.8961     2.9105    87.8386 </r>
       <r>    36.2775     2.9601    88.9675 </r>
       <r>    36.6589     3.0622    90.1353 </r>
       <r>    37.0402     2.6522    91.1467 </r>
       <r>    37.4216     3.3046    92.4070 </r>
       <r>    37.8029     3.6359    93.7935 </r>
       <r>    38.1843     2.8837    94.8933 </r>
       <r>    38.5657     3.3670    96.1773 </r>
       <r>    38.9470     3.0978    97.3587 </r>
       <r>    39.3284     3.9786    98.8760 </r>
       <r>    39.7097     3.6144   100.2543 </r>
       <r>    40.0911     3.9800   101.7721 </r>
       <r>    40.4724     3.5530   103.1271 </r>
       <r>    40.8538     3.1377   104.3237 </r>
       <r>    41.2352     2.4864   105.2719 </r>
       <r>    41.6165     3.4979   106.6059 </r>
       <r>    41.9979     4.2698   108.2342 </r>
       <r>    42.3792     3.8388   109.6982 </r>
       <r>    42.7606     3.5080   111.0360 </r>
       <r>    43.1420     3.6115   112.4132 </r>
       <r>    43.5233     3.8058   113.8646 </r>
       <r>    43.9047     3.0384   115.0233 </r>
       <r>    44.2860     3.7123   116.4390 </r>
       <r>    44.6674     3.7371   117.8642 </r>
       <r>    45.0488     3.0060   119.0106 </r>
       <r>    45.4301     3.7253   120.4313 </r>
       <r>    45.8115     3.3217   121.6980 </r>
       <r>    46.1928     3.6282   123.0817 </r>
       <r>    46.5742     4.2549   124.7043 </r>
       <r>    46.9555     3.7226   126.1240 </r>
       <r>    47.3369     3.4797   127.4510 </r>
       <r>    47.7183     4.1752   129.0433 </r>
       <r>    48.0996     3.6627   130.4400 </r>
       <r>    48.4810     4.3445   132.0969 </r>
       <r>    48.8623     3.8401   133.5613 </r>
       <r>    49.2437     3.9888   135.0825 </r>
       <r>    49.6251     3.9049   136.5717 </r>
       <r>    50.0064     3.2764   137.8212 </r>
       <r>    50.3878     3.7806   139.2629 </r>
       <r>    50.7691     3.8808   140.7429 </r>
       <r>    51.1505     3.9463   142.2479 </r>
       <r>    51.5318     3.4058   143.5467 </r>
       <r>    51.9132     4.3678   145.2124 </r>
       <r>    52.2946     3.3275   146.4813 </r>
       <r>    52.6759     4.4284   148.1702 </r>
       <r>    53.0573     3.7472   149.5992 </r>
       <r>    53.4386     3.4325   150.9082 </r>
       <r>    53.8200     3.9174   152.4022 </r>
       <r>    54.2014     3.8064   153.8538 </r>
       <r>    54.5827     3.9344   155.3542 </r>
       <r>    54.9641     3.8030   156.8045 </r>
       <r>    55.3454     4.0417   158.3458 </r>
       <r>    55.7268     3.7237   159.7659 </r>
       <r>    56.1081     4.3194   161.4131 </r>
       <r>    56.4895     4.9075   163.2846 </r>
       <r>    56.8709     3.0000   164.4287 </r>
       <r>    57.2522     3.4613   165.7487 </r>
       <r>    57.6336     4.6731   167.5308 </r>
       <r>    58.0149     3.1611   168.7363 </r>
       <r>    58.3963     4.1046   170.3017 </r>
       <r>    58.7777     3.3997   171.5982 </r>
       <r>    59.1590     4.6174   173.3591 </r>
       <r>    59.5404     4.3113   175.0032 </r>
       <r>    59.9217     4.9162   176.8781 </r>
       <r>    60.3031     3.8399   178.3424 </r>
       <r>    60.6845     4.1565   179.9276 </r>
       <r>    61.0658     4.1958   181.5277 </r>
       <r>    61.4472     3.7838   182.9707 </r>
       <r>    61.8285     4.3333   184.6232 </r>
       <r>    62.2099     4.8069   186.4563 </r>
       <r>    62.5912     3.9675   187.9694 </r>
       <r>    62.9726     4.9773   189.8675 </r>
       <r>    63.3540     4.0504   191.4121 </r>
       <r>    63.7353     4.2363   193.0277 </r>
       <r>    64.1167     4.3200   194.6751 </r>
       <r>    64.4980     4.0020   196.2014 </r>
       <r>    64.8794     4.3446   197.8582 </r>
       <r>    65.2608     4.9829   199.7585 </r>
       <r>    65.6421     4.2909   201.3949 </r>
       <r>    66.0235     4.0547   202.9412 </r>
       <r>    66.4048     4.2231   204.5517 </r>
       <r>    66.7862     4.6026   206.3069 </r>
       <r>    67.1675     4.5091   208.0265 </r>
       <r>    67.5489     4.5560   209.7640 </r>
       <r>    67.9303     3.8628   211.2371 </r>
       <r>    68.3116     5.0517   213.1636 </r>
       <r>    68.6930     4.0145   214.6946 </r>
       <r>    69.0743     4.1106   216.2622 </r>
       <r>    69.4557     4.6029   218.0175 </r>
       <r>    69.8371     4.8366   219.8620 </r>
       <r>    70.2184     4.2316   221.4758 </r>
       <r>    70.5998     4.4333   223.1665 </r>
       <r>    70.9811     3.9862   224.6866 </r>
       <r>    71.3625     4.2214   226.2965 </r>
       <r>    71.7438     4.3600   227.9592 </r>
       <r>    72.1252     5.1593   229.9267 </r>
       <r>    72.5066     4.0777   231.4818 </r>
       <r>    72.8879     4.4562   233.1812 </r>
       <r>    73.2693     4.9813   235.0809 </r>
       <r>    73.6506     4.3002   236.7208 </r>
       <r>    74.0320     4.1494   238.3032 </r>
       <r>    74.4134     4.6195   240.0649 </r>
       <r>    74.7947     4.9357   241.9472 </r>
       <r>    75.1761     5.0024   243.8549 </r>
       <r>    75.5574     4.9871   245.7568 </r>
       <r>    75.9388     4.6310   247.5228 </r>
       <r>    76.3202     3.5409   248.8732 </r>
       <r>    76.7015     3.6581   250.2683 </r>
       <r>    77.0829     3.4004   251.5650 </r>
       <r>    77.4642     3.1753   252.7760 </r>
       <r>    77.8456     2.7853   253.8381 </r>
       <r>    78.2269     1.5787   254.4402 </r>
       <r>    78.6083     1.2780   254.9276 </r>
       <r>    78.9897     0.6915   255.1913 </r>
       <r>    79.3710     0.9839   255.5665 </r>
       <r>    79.7524     0.3820   255.7122 </r>
       <r>    80.1337     0.1630   255.7743 </r>
       <r>    80.5151     0.1641   255.8369 </r>
       <r>    80.8965     0.2045   255.9149 </r>
       <r>    81.2778     0.0550   255.9359 </r>
       <r>    81.6592     0.0883   255.9695 </r>
       <r>    82.0405     0.0799   256.0000 </r>
       <r>    82.4219     0.0000   256.0000 </r>
       <r>    82.8032     0.0000   256.0000 </r>
       <r>    83.1846     0.0000   256.0000 </r>
       <r>    83.5660     0.0000   256.0000 </r>
       <r>    83.9473     0.0000   256.0000 </r>
       <r>    84.3287     0.0000   256.0000 </r>
       <r>    84.7100     0.0000   256.0000 </r>
       <r>    85.0914     0.0000   256.0000 </r>
       <r>    85.4728     0.0000   256.0000 </r>
       <r>    85.8541     0.0000   256.0000 </r>
       <r>    86.2355     0.0000   256.0000 </r>
       <r>    86.6168     0.0000   256.0000 </r>
       <r>    86.9982     0.0000   256.0000 </r>
      </set>
     </set>
    </array>
   </total>
  </dos>
 </calculation>
 <structure name="finalpos" >
  <crystal>
   <varray name="basis" >
    <v>       1.16015450      -2.13771446       0.00000000 </v>
    <v>       1.16015450       2.13771446       0.00000000 </v>
    <v>       0.00000000       0.00000000      15.52239374 </v>
   </varray>
   <i name="volume">     76.99352677 </i>
   <varray name="rec_basis" >
    <v>       0.43097708      -0.23389466       0.00000000 </v>
    <v>       0.43097708       0.23389466       0.00000000 </v>
    <v>       0.00000000       0.00000000       0.06442305 </v>
   </varray>
  </crystal>
  <varray name="positions" >
   <v>       0.66462006       0.33537994       0.50000000 </v>
   <v>       0.33537994       0.66462006       0.50000000 </v>
  </varray>
 </structure>
</modeling>
