unknown system                          
           1
     1.160154   -2.137714    0.000000
     1.160154    2.137714    0.000000
     0.000000    0.000000   15.522394
   C 
   2
Direct configuration=     1
   0.66666762  0.33333238  0.50000000
   0.33333238  0.66666762  0.50000000
Direct configuration=     2
   0.66414870  0.33585130  0.50000000
   0.33585130  0.66414870  0.50000000
Direct configuration=     3
   0.66462006  0.33537994  0.50000000
   0.33537994  0.66462006  0.50000000
