   2   2   0   0
  0.4218262E+02  0.2487138E-09  0.2487138E-09  0.1552239E-08  0.1000000E-15
  1.000000000000000E-004
  CAR 
 unknown system                          
     80.28151139    -26.44293712  301     -2.46864945      1.00000000
    -26.443  0.0000E+00  0.0000E+00
    -26.087  0.0000E+00  0.0000E+00
    -25.731  0.0000E+00  0.0000E+00
    -25.376  0.0000E+00  0.0000E+00
    -25.020  0.0000E+00  0.0000E+00
    -24.664  0.0000E+00  0.0000E+00
    -24.308  0.0000E+00  0.0000E+00
    -23.953  0.0000E+00  0.0000E+00
    -23.597  0.0000E+00  0.0000E+00
    -23.241  0.0000E+00  0.0000E+00
    -22.885  0.0000E+00  0.0000E+00
    -22.530  0.0000E+00  0.0000E+00
    -22.174  0.9753E-19  0.3469E-19
    -21.818  0.6649E-06  0.2365E-06
    -21.462  0.2702E-02  0.9615E-03
    -21.107  0.6474E-02  0.3264E-02
    -20.751  0.5914E-02  0.5368E-02
    -20.395  0.6563E-02  0.7703E-02
    -20.039  0.6846E-02  0.1014E-01
    -19.684  0.5339E-02  0.1204E-01
    -19.328  0.7378E-02  0.1466E-01
    -18.972  0.6222E-02  0.1688E-01
    -18.616  0.7388E-02  0.1950E-01
    -18.261  0.6735E-02  0.2190E-01
    -17.905  0.4418E-02  0.2347E-01
    -17.549  0.1009E-01  0.2706E-01
    -17.193  0.5620E-02  0.2906E-01
    -16.838  0.6730E-02  0.3145E-01
    -16.482  0.1169E-01  0.3561E-01
    -16.126  0.3621E-02  0.3690E-01
    -15.770  0.4981E-02  0.3867E-01
    -15.415  0.3142E-02  0.3979E-01
    -15.059  0.4695E-02  0.4146E-01
    -14.703  0.9983E-02  0.4501E-01
    -14.347  0.7216E-02  0.4758E-01
    -13.992  0.9402E-02  0.5093E-01
    -13.636  0.4859E-02  0.5265E-01
    -13.280  0.8637E-02  0.5573E-01
    -12.925  0.2431E-02  0.5659E-01
    -12.569  0.9372E-02  0.5993E-01
    -12.213  0.5016E-02  0.6171E-01
    -11.857  0.9681E-02  0.6515E-01
    -11.502  0.5210E-02  0.6701E-01
    -11.146  0.8407E-02  0.7000E-01
    -10.790  0.9667E-02  0.7344E-01
    -10.434  0.7028E-02  0.7594E-01
    -10.079  0.1023E-01  0.7958E-01
     -9.723  0.1051E-01  0.8332E-01
     -9.367  0.1442E-01  0.8845E-01
     -9.011  0.1888E-01  0.9516E-01
     -8.656  0.2025E-01  0.1024E+00
     -8.300  0.1641E-01  0.1082E+00
     -7.944  0.1968E-01  0.1152E+00
     -7.588  0.1110E-01  0.1192E+00
     -7.233  0.1577E-01  0.1248E+00
     -6.877  0.1304E-01  0.1294E+00
     -6.521  0.1022E-01  0.1330E+00
     -6.165  0.1273E-01  0.1376E+00
     -5.810  0.1159E-01  0.1417E+00
     -5.454  0.1005E-01  0.1453E+00
     -5.098  0.9267E-02  0.1486E+00
     -4.742  0.7201E-02  0.1511E+00
     -4.387  0.1088E-01  0.1550E+00
     -4.031  0.5299E-02  0.1569E+00
     -3.675  0.2644E-02  0.1578E+00
     -3.319  0.4310E-02  0.1594E+00
     -2.964  0.9402E-03  0.1597E+00
     -2.608  0.3534E-03  0.1598E+00
     -2.252  0.1325E-02  0.1603E+00
     -1.896  0.8115E-04  0.1603E+00
     -1.541  0.1983E-02  0.1610E+00
     -1.185  0.5328E-02  0.1629E+00
     -0.829  0.6051E-02  0.1651E+00
     -0.473  0.1234E-01  0.1695E+00
     -0.118  0.6027E-02  0.1716E+00
      0.238  0.5997E-02  0.1737E+00
      0.594  0.5288E-02  0.1756E+00
      0.950  0.7580E-02  0.1783E+00
      1.305  0.7534E-02  0.1810E+00
      1.661  0.9696E-02  0.1844E+00
      2.017  0.1057E-01  0.1882E+00
      2.373  0.1597E-01  0.1939E+00
      2.728  0.1503E-01  0.1992E+00
      3.084  0.1918E-01  0.2061E+00
      3.440  0.1714E-01  0.2121E+00
      3.796  0.1871E-01  0.2188E+00
      4.151  0.1940E-01  0.2257E+00
      4.507  0.2460E-01  0.2345E+00
      4.863  0.2909E-01  0.2448E+00
      5.219  0.3682E-01  0.2579E+00
      5.574  0.3936E-01  0.2719E+00
      5.930  0.4803E-01  0.2890E+00
      6.286  0.4162E-01  0.3038E+00
      6.642  0.2932E-01  0.3142E+00
      6.997  0.3436E-01  0.3264E+00
      7.353  0.4258E-01  0.3416E+00
      7.709  0.2727E-01  0.3513E+00
      8.065  0.3857E-01  0.3650E+00
      8.420  0.5102E-01  0.3832E+00
      8.776  0.3272E-01  0.3948E+00
      9.132  0.4743E-01  0.4117E+00
      9.488  0.4091E-01  0.4262E+00
      9.843  0.4579E-01  0.4425E+00
     10.199  0.5162E-01  0.4609E+00
     10.555  0.3799E-01  0.4744E+00
     10.911  0.4245E-01  0.4895E+00
     11.266  0.4845E-01  0.5067E+00
     11.622  0.5530E-01  0.5264E+00
     11.978  0.3449E-01  0.5387E+00
     12.334  0.2103E-01  0.5462E+00
     12.689  0.3346E-01  0.5581E+00
     13.045  0.5254E-01  0.5768E+00
     13.401  0.4473E-01  0.5927E+00
     13.757  0.4639E-01  0.6092E+00
     14.112  0.6348E-01  0.6318E+00
     14.468  0.4720E-01  0.6486E+00
     14.824  0.5138E-01  0.6668E+00
     15.180  0.3259E-01  0.6784E+00
     15.535  0.4675E-01  0.6951E+00
     15.891  0.5339E-01  0.7141E+00
     16.247  0.4203E-01  0.7290E+00
     16.603  0.5788E-01  0.7496E+00
     16.958  0.4023E-01  0.7639E+00
     17.314  0.5048E-01  0.7819E+00
     17.670  0.4396E-01  0.7975E+00
     18.026  0.5415E-01  0.8168E+00
     18.381  0.5916E-01  0.8378E+00
     18.737  0.4800E-01  0.8549E+00
     19.093  0.6042E-01  0.8764E+00
     19.449  0.6456E-01  0.8994E+00
     19.804  0.4054E-01  0.9138E+00
     20.160  0.5116E-01  0.9320E+00
     20.516  0.6938E-01  0.9567E+00
     20.872  0.7320E-01  0.9827E+00
     21.227  0.5181E-01  0.1001E+01
     21.583  0.5730E-01  0.1022E+01
     21.939  0.5278E-01  0.1040E+01
     22.295  0.5791E-01  0.1061E+01
     22.650  0.6899E-01  0.1085E+01
     23.006  0.5814E-01  0.1106E+01
     23.362  0.6949E-01  0.1131E+01
     23.718  0.5287E-01  0.1150E+01
     24.073  0.5963E-01  0.1171E+01
     24.429  0.4939E-01  0.1188E+01
     24.785  0.5905E-01  0.1209E+01
     25.141  0.5783E-01  0.1230E+01
     25.496  0.4748E-01  0.1247E+01
     25.852  0.6033E-01  0.1268E+01
     26.208  0.6823E-01  0.1293E+01
     26.564  0.5638E-01  0.1313E+01
     26.919  0.4919E-01  0.1330E+01
     27.275  0.5722E-01  0.1351E+01
     27.631  0.5672E-01  0.1371E+01
     27.987  0.5566E-01  0.1391E+01
     28.342  0.7538E-01  0.1417E+01
     28.698  0.5752E-01  0.1438E+01
     29.054  0.5618E-01  0.1458E+01
     29.410  0.6998E-01  0.1483E+01
     29.765  0.5850E-01  0.1503E+01
     30.121  0.5938E-01  0.1525E+01
     30.477  0.6024E-01  0.1546E+01
     30.833  0.6596E-01  0.1570E+01
     31.188  0.7960E-01  0.1598E+01
     31.544  0.7541E-01  0.1625E+01
     31.900  0.6312E-01  0.1647E+01
     32.256  0.4966E-01  0.1665E+01
     32.611  0.4055E-01  0.1679E+01
     32.967  0.5890E-01  0.1700E+01
     33.323  0.8311E-01  0.1730E+01
     33.679  0.7034E-01  0.1755E+01
     34.034  0.7177E-01  0.1780E+01
     34.390  0.7663E-01  0.1808E+01
     34.746  0.6256E-01  0.1830E+01
     35.101  0.6063E-01  0.1851E+01
     35.457  0.7295E-01  0.1877E+01
     35.813  0.7753E-01  0.1905E+01
     36.169  0.6034E-01  0.1926E+01
     36.524  0.6319E-01  0.1949E+01
     36.880  0.6311E-01  0.1971E+01
     37.236  0.6863E-01  0.1996E+01
     37.592  0.7511E-01  0.2022E+01
     37.947  0.8503E-01  0.2053E+01
     38.303  0.8923E-01  0.2084E+01
     38.659  0.7187E-01  0.2110E+01
     39.015  0.7763E-01  0.2138E+01
     39.370  0.8211E-01  0.2167E+01
     39.726  0.8384E-01  0.2197E+01
     40.082  0.6535E-01  0.2220E+01
     40.438  0.8657E-01  0.2251E+01
     40.793  0.6703E-01  0.2275E+01
     41.149  0.7584E-01  0.2302E+01
     41.505  0.8078E-01  0.2330E+01
     41.861  0.8218E-01  0.2359E+01
     42.216  0.8793E-01  0.2391E+01
     42.572  0.7907E-01  0.2419E+01
     42.928  0.7618E-01  0.2446E+01
     43.284  0.7177E-01  0.2472E+01
     43.639  0.6262E-01  0.2494E+01
     43.995  0.8842E-01  0.2525E+01
     44.351  0.7425E-01  0.2552E+01
     44.707  0.8802E-01  0.2583E+01
     45.062  0.6616E-01  0.2607E+01
     45.418  0.8342E-01  0.2636E+01
     45.774  0.8249E-01  0.2666E+01
     46.130  0.8268E-01  0.2695E+01
     46.485  0.8382E-01  0.2725E+01
     46.841  0.8149E-01  0.2754E+01
     47.197  0.7316E-01  0.2780E+01
     47.553  0.7549E-01  0.2807E+01
     47.908  0.7524E-01  0.2833E+01
     48.264  0.6490E-01  0.2857E+01
     48.620  0.8006E-01  0.2885E+01
     48.976  0.8349E-01  0.2915E+01
     49.331  0.8786E-01  0.2946E+01
     49.687  0.8479E-01  0.2976E+01
     50.043  0.8877E-01  0.3008E+01
     50.399  0.7248E-01  0.3033E+01
     50.754  0.9512E-01  0.3067E+01
     51.110  0.7371E-01  0.3094E+01
     51.466  0.7715E-01  0.3121E+01
     51.822  0.8373E-01  0.3151E+01
     52.177  0.8370E-01  0.3181E+01
     52.533  0.7947E-01  0.3209E+01
     52.889  0.9266E-01  0.3242E+01
     53.245  0.9536E-01  0.3276E+01
     53.600  0.9680E-01  0.3310E+01
     53.956  0.9131E-01  0.3343E+01
     54.312  0.7900E-01  0.3371E+01
     54.668  0.8481E-01  0.3401E+01
     55.023  0.9221E-01  0.3434E+01
     55.379  0.9510E-01  0.3468E+01
     55.735  0.7803E-01  0.3495E+01
     56.091  0.8390E-01  0.3525E+01
     56.446  0.7809E-01  0.3553E+01
     56.802  0.9318E-01  0.3586E+01
     57.158  0.9356E-01  0.3619E+01
     57.514  0.9211E-01  0.3652E+01
     57.869  0.8897E-01  0.3684E+01
     58.225  0.9813E-01  0.3719E+01
     58.581  0.8358E-01  0.3748E+01
     58.937  0.9417E-01  0.3782E+01
     59.292  0.7130E-01  0.3807E+01
     59.648  0.9734E-01  0.3842E+01
     60.004  0.9102E-01  0.3874E+01
     60.360  0.9845E-01  0.3909E+01
     60.715  0.9150E-01  0.3942E+01
     61.071  0.7890E-01  0.3970E+01
     61.427  0.9873E-01  0.4005E+01
     61.783  0.9207E-01  0.4038E+01
     62.138  0.1082E+00  0.4076E+01
     62.494  0.9888E-01  0.4111E+01
     62.850  0.8043E-01  0.4140E+01
     63.206  0.7663E-01  0.4167E+01
     63.561  0.9919E-01  0.4203E+01
     63.917  0.1004E+00  0.4238E+01
     64.273  0.1029E+00  0.4275E+01
     64.629  0.9230E-01  0.4308E+01
     64.984  0.8955E-01  0.4340E+01
     65.340  0.8664E-01  0.4370E+01
     65.696  0.9319E-01  0.4404E+01
     66.052  0.1019E+00  0.4440E+01
     66.407  0.1109E+00  0.4479E+01
     66.763  0.8833E-01  0.4511E+01
     67.119  0.1042E+00  0.4548E+01
     67.475  0.1012E+00  0.4584E+01
     67.830  0.7979E-01  0.4612E+01
     68.186  0.8034E-01  0.4641E+01
     68.542  0.9281E-01  0.4674E+01
     68.898  0.9112E-01  0.4706E+01
     69.253  0.1027E+00  0.4743E+01
     69.609  0.1040E+00  0.4780E+01
     69.965  0.9143E-01  0.4812E+01
     70.321  0.1001E+00  0.4848E+01
     70.676  0.1039E+00  0.4885E+01
     71.032  0.9819E-01  0.4920E+01
     71.388  0.9122E-01  0.4952E+01
     71.744  0.7450E-01  0.4979E+01
     72.099  0.7815E-01  0.5007E+01
     72.455  0.6424E-01  0.5029E+01
     72.811  0.6668E-01  0.5053E+01
     73.167  0.5262E-01  0.5072E+01
     73.522  0.5987E-01  0.5093E+01
     73.878  0.3151E-01  0.5104E+01
     74.234  0.2509E-01  0.5113E+01
     74.590  0.7566E-02  0.5116E+01
     74.945  0.6838E-02  0.5118E+01
     75.301  0.2882E-02  0.5119E+01
     75.657  0.1610E-02  0.5120E+01
     76.013  0.6144E-06  0.5120E+01
     76.368  0.0000E+00  0.5120E+01
     76.724  0.0000E+00  0.5120E+01
     77.080  0.0000E+00  0.5120E+01
     77.436  0.0000E+00  0.5120E+01
     77.791  0.0000E+00  0.5120E+01
     78.147  0.0000E+00  0.5120E+01
     78.503  0.0000E+00  0.5120E+01
     78.859  0.0000E+00  0.5120E+01
     79.214  0.0000E+00  0.5120E+01
     79.570  0.0000E+00  0.5120E+01
     79.926  0.0000E+00  0.5120E+01
     80.282  0.0000E+00  0.5120E+01
