    2    2   50    1
  0.4218262E+02  0.2487138E-09  0.2487138E-09  0.1552239E-08  0.1000000E-15
  1.000000000000000E-004
  CAR 
 unknown system                          
      8     72    128
 
  0.3125000E-01  0.3125000E-01  0.0000000E+00  0.7812500E-02
    1      -21.549701   1.000000
    2       -9.700968   1.000000
    3       -5.917634   1.000000
    4       -5.542293   1.000000
    5        1.017513   0.000000
    6        1.895568   0.000000
    7        2.430834   0.000000
    8        4.143531   0.000000
    9        4.878979   0.000000
   10        5.430048   0.000000
   11        5.958847   0.000000
   12        7.771686   0.000000
   13        8.137405   0.000000
   14        8.826361   0.000000
   15        9.159523   0.000000
   16       12.728003   0.000000
   17       14.151776   0.000000
   18       18.827781   0.000000
   19       19.628980   0.000000
   20       20.818696   0.000000
   21       24.010516   0.000000
   22       24.356934   0.000000
   23       25.837079   0.000000
   24       28.181426   0.000000
   25       28.744076   0.000000
   26       29.147743   0.000000
   27       29.472665   0.000000
   28       29.523281   0.000000
   29       30.694167   0.000000
   30       30.921250   0.000000
   31       30.971504   0.000000
   32       31.023719   0.000000
   33       31.217679   0.000000
   34       32.795931   0.000000
   35       32.987642   0.000000
   36       33.079923   0.000000
   37       33.318762   0.000000
   38       33.563286   0.000000
   39       33.678046   0.000000
   40       34.794958   0.000000
   41       34.887104   0.000000
   42       34.981339   0.000000
   43       35.033856   0.000000
   44       35.264180   0.000000
   45       35.447822   0.000000
   46       35.967200   0.000000
   47       36.019235   0.000000
   48       36.675430   0.000000
   49       36.678124   0.000000
   50       36.708011   0.000000
   51       36.923900   0.000000
   52       36.979434   0.000000
   53       36.986696   0.000000
   54       37.318595   0.000000
   55       37.537790   0.000000
   56       37.587437   0.000000
   57       37.778145   0.000000
   58       37.944944   0.000000
   59       38.090157   0.000000
   60       38.674801   0.000000
   61       38.895032   0.000000
   62       39.085693   0.000000
   63       39.315484   0.000000
   64       40.529250   0.000000
   65       40.985765   0.000000
   66       41.208884   0.000000
   67       41.392413   0.000000
   68       41.597673   0.000000
   69       42.126935   0.000000
   70       42.152933   0.000000
   71       42.526981   0.000000
   72       42.643392   0.000000
   73       42.771013   0.000000
   74       43.173458   0.000000
   75       43.342353   0.000000
   76       45.351285   0.000000
   77       45.357121   0.000000
   78       45.756552   0.000000
   79       45.783953   0.000000
   80       46.567145   0.000000
   81       47.157086   0.000000
   82       47.722896   0.000000
   83       47.829589   0.000000
   84       48.300253   0.000000
   85       48.475246   0.000000
   86       48.525823   0.000000
   87       48.883495   0.000000
   88       49.353124   0.000000
   89       49.686758   0.000000
   90       49.992726   0.000000
   91       50.269368   0.000000
   92       52.304659   0.000000
   93       53.181614   0.000000
   94       53.200827   0.000000
   95       54.140768   0.000000
   96       54.504279   0.000000
   97       54.783297   0.000000
   98       54.906034   0.000000
   99       55.890053   0.000000
  100       56.146399   0.000000
  101       56.685637   0.000000
  102       57.131127   0.000000
  103       57.600515   0.000000
  104       58.829317   0.000000
  105       59.911034   0.000000
  106       60.165055   0.000000
  107       61.129220   0.000000
  108       61.473915   0.000000
  109       61.825544   0.000000
  110       62.456195   0.000000
  111       62.627502   0.000000
  112       63.195525   0.000000
  113       63.761051   0.000000
  114       65.119211   0.000000
  115       65.252760   0.000000
  116       66.020440   0.000000
  117       66.029471   0.000000
  118       67.074727   0.000000
  119       69.070532   0.000000
  120       69.146942   0.000000
  121       69.318438   0.000000
  122       70.011188   0.000000
  123       71.234163   0.000000
  124       71.244799   0.000000
  125       71.682069   0.000000
  126       71.775092   0.000000
  127       72.007887   0.000000
  128       73.336473   0.000000
 
  0.9375000E-01  0.3125000E-01  0.0000000E+00  0.1562500E-01
    1      -21.331169   1.000000
    2       -9.443242   1.000000
    3       -6.717650   1.000000
    4       -6.008702   1.000000
    5        1.313732   0.000000
    6        2.194122   0.000000
    7        2.733066   0.000000
    8        4.440371   0.000000
    9        5.164191   0.000000
   10        5.664257   0.000000
   11        6.825696   0.000000
   12        7.415890   0.000000
   13        8.060502   0.000000
   14        9.124114   0.000000
   15        9.513301   0.000000
   16       12.991149   0.000000
   17       14.443768   0.000000
   18       18.925597   0.000000
   19       20.160706   0.000000
   20       21.126666   0.000000
   21       22.072096   0.000000
   22       23.517504   0.000000
   23       25.922782   0.000000
   24       26.029609   0.000000
   25       27.329833   0.000000
   26       27.348001   0.000000
   27       27.883680   0.000000
   28       28.283825   0.000000
   29       29.023907   0.000000
   30       29.380554   0.000000
   31       29.425618   0.000000
   32       29.734846   0.000000
   33       29.758335   0.000000
   34       31.105829   0.000000
   35       31.455292   0.000000
   36       31.715612   0.000000
   37       32.171445   0.000000
   38       33.199802   0.000000
   39       33.451678   0.000000
   40       33.452147   0.000000
   41       33.578800   0.000000
   42       33.814828   0.000000
   43       35.329697   0.000000
   44       35.343588   0.000000
   45       35.725298   0.000000
   46       35.765078   0.000000
   47       35.990849   0.000000
   48       36.722336   0.000000
   49       36.905830   0.000000
   50       37.583102   0.000000
   51       37.751069   0.000000
   52       37.974641   0.000000
   53       38.217330   0.000000
   54       38.628452   0.000000
   55       38.800794   0.000000
   56       38.896901   0.000000
   57       38.995146   0.000000
   58       39.478030   0.000000
   59       39.662137   0.000000
   60       39.871916   0.000000
   61       39.941095   0.000000
   62       40.603427   0.000000
   63       40.701026   0.000000
   64       40.927015   0.000000
   65       40.959084   0.000000
   66       41.262659   0.000000
   67       41.305775   0.000000
   68       42.505639   0.000000
   69       42.890076   0.000000
   70       43.171785   0.000000
   71       43.576301   0.000000
   72       43.700529   0.000000
   73       44.191689   0.000000
   74       44.634501   0.000000
   75       44.927327   0.000000
   76       45.328841   0.000000
   77       45.446956   0.000000
   78       45.704422   0.000000
   79       46.323303   0.000000
   80       46.973598   0.000000
   81       47.375952   0.000000
   82       47.721403   0.000000
   83       47.796031   0.000000
   84       47.863509   0.000000
   85       48.953637   0.000000
   86       49.293549   0.000000
   87       49.878388   0.000000
   88       49.981592   0.000000
   89       50.687702   0.000000
   90       51.408188   0.000000
   91       52.147406   0.000000
   92       52.372931   0.000000
   93       52.886979   0.000000
   94       52.915343   0.000000
   95       53.911241   0.000000
   96       54.763841   0.000000
   97       55.390719   0.000000
   98       55.401521   0.000000
   99       56.347293   0.000000
  100       56.714723   0.000000
  101       57.269434   0.000000
  102       57.819941   0.000000
  103       59.384605   0.000000
  104       59.414044   0.000000
  105       59.669941   0.000000
  106       59.746644   0.000000
  107       60.429593   0.000000
  108       61.935105   0.000000
  109       62.665645   0.000000
  110       63.322198   0.000000
  111       63.500618   0.000000
  112       63.724506   0.000000
  113       64.342794   0.000000
  114       64.721324   0.000000
  115       64.739747   0.000000
  116       65.646418   0.000000
  117       66.673640   0.000000
  118       67.327200   0.000000
  119       68.210075   0.000000
  120       68.818783   0.000000
  121       69.649282   0.000000
  122       70.146589   0.000000
  123       72.186336   0.000000
  124       72.296845   0.000000
  125       72.925627   0.000000
  126       73.093483   0.000000
  127       73.457755   0.000000
  128       73.944385   0.000000
 
  0.1562500E+00  0.3125000E-01  0.0000000E+00  0.1562500E-01
    1      -20.937648   1.000000
    2       -8.981768   1.000000
    3       -7.984860   1.000000
    4       -6.624874   1.000000
    5        1.849242   0.000000
    6        2.732052   0.000000
    7        3.279388   0.000000
    8        4.972813   0.000000
    9        5.606995   0.000000
   10        5.848797   0.000000
   11        6.255152   0.000000
   12        8.189408   0.000000
   13        8.578877   0.000000
   14        9.655768   0.000000
   15       10.300998   0.000000
   16       13.448405   0.000000
   17       14.966175   0.000000
   18       18.635367   0.000000
   19       20.665649   0.000000
   20       20.766666   0.000000
   21       21.684916   0.000000
   22       22.305293   0.000000
   23       22.986443   0.000000
   24       24.068067   0.000000
   25       24.077080   0.000000
   26       25.921331   0.000000
   27       26.356560   0.000000
   28       26.755822   0.000000
   29       27.117785   0.000000
   30       27.643958   0.000000
   31       28.070651   0.000000
   32       29.014786   0.000000
   33       29.523968   0.000000
   34       30.063716   0.000000
   35       30.268299   0.000000
   36       30.336662   0.000000
   37       30.699302   0.000000
   38       30.944173   0.000000
   39       31.959238   0.000000
   40       32.047848   0.000000
   41       33.393078   0.000000
   42       33.969493   0.000000
   43       33.978251   0.000000
   44       34.549785   0.000000
   45       34.680456   0.000000
   46       35.132950   0.000000
   47       35.475654   0.000000
   48       36.265115   0.000000
   49       37.815600   0.000000
   50       38.028922   0.000000
   51       38.167298   0.000000
   52       38.286115   0.000000
   53       38.712402   0.000000
   54       39.177068   0.000000
   55       39.347489   0.000000
   56       39.703905   0.000000
   57       40.183838   0.000000
   58       40.328008   0.000000
   59       40.901289   0.000000
   60       41.209293   0.000000
   61       41.376010   0.000000
   62       41.642784   0.000000
   63       41.916893   0.000000
   64       42.385089   0.000000
   65       42.495502   0.000000
   66       43.066894   0.000000
   67       43.147417   0.000000
   68       43.442034   0.000000
   69       43.686682   0.000000
   70       44.752256   0.000000
   71       45.004061   0.000000
   72       45.032440   0.000000
   73       45.625040   0.000000
   74       45.689803   0.000000
   75       45.974337   0.000000
   76       46.242501   0.000000
   77       46.969948   0.000000
   78       47.163347   0.000000
   79       47.445803   0.000000
   80       47.993946   0.000000
   81       48.355675   0.000000
   82       48.444386   0.000000
   83       49.038856   0.000000
   84       49.355031   0.000000
   85       50.017288   0.000000
   86       50.610819   0.000000
   87       50.767560   0.000000
   88       51.085206   0.000000
   89       51.579764   0.000000
   90       51.990705   0.000000
   91       52.442271   0.000000
   92       52.824422   0.000000
   93       53.235814   0.000000
   94       53.600862   0.000000
   95       54.407618   0.000000
   96       56.305945   0.000000
   97       56.831607   0.000000
   98       56.864321   0.000000
   99       57.535947   0.000000
  100       57.996949   0.000000
  101       58.707857   0.000000
  102       58.775142   0.000000
  103       59.173579   0.000000
  104       59.512832   0.000000
  105       59.772953   0.000000
  106       60.329052   0.000000
  107       61.101963   0.000000
  108       61.988706   0.000000
  109       62.637177   0.000000
  110       63.595426   0.000000
  111       63.608711   0.000000
  112       63.758132   0.000000
  113       65.437423   0.000000
  114       66.242589   0.000000
  115       66.309536   0.000000
  116       66.605032   0.000000
  117       67.140154   0.000000
  118       68.070302   0.000000
  119       68.309630   0.000000
  120       69.822792   0.000000
  121       69.988179   0.000000
  122       70.835663   0.000000
  123       71.173050   0.000000
  124       71.940439   0.000000
  125       72.818256   0.000000
  126       73.104924   0.000000
  127       73.452462   0.000000
  128       73.861669   0.000000
 
  0.2187500E+00  0.3125000E-01  0.0000000E+00  0.1562500E-01
    1      -20.372142   1.000000
    2       -9.497336   1.000000
    3       -8.325763   1.000000
    4       -7.251927   1.000000
    5        2.622912   0.000000
    6        3.498148   0.000000
    7        4.069150   0.000000
    8        4.783945   0.000000
    9        5.590257   0.000000
   10        5.767959   0.000000
   11        6.517771   0.000000
   12        9.320612   0.000000
   13        9.921542   0.000000
   14       10.421681   0.000000
   15       11.384742   0.000000
   16       14.041192   0.000000
   17       15.710752   0.000000
   18       17.478769   0.000000
   19       19.283346   0.000000
   20       20.258590   0.000000
   21       20.754169   0.000000
   22       21.090810   0.000000
   23       21.637721   0.000000
   24       21.860033   0.000000
   25       22.690582   0.000000
   26       23.517440   0.000000
   27       23.835596   0.000000
   28       25.619536   0.000000
   29       26.158219   0.000000
   30       26.862170   0.000000
   31       26.976145   0.000000
   32       27.447568   0.000000
   33       28.507655   0.000000
   34       28.549874   0.000000
   35       28.904978   0.000000
   36       29.692183   0.000000
   37       30.042256   0.000000
   38       30.344084   0.000000
   39       30.811102   0.000000
   40       31.173075   0.000000
   41       32.564124   0.000000
   42       32.662777   0.000000
   43       32.795619   0.000000
   44       33.003518   0.000000
   45       33.635754   0.000000
   46       33.676474   0.000000
   47       35.974915   0.000000
   48       36.565095   0.000000
   49       36.687699   0.000000
   50       37.723109   0.000000
   51       38.006820   0.000000
   52       38.215609   0.000000
   53       38.452975   0.000000
   54       39.125411   0.000000
   55       39.474808   0.000000
   56       39.542629   0.000000
   57       41.100911   0.000000
   58       41.644098   0.000000
   59       41.981727   0.000000
   60       42.431023   0.000000
   61       42.531291   0.000000
   62       43.054105   0.000000
   63       43.238216   0.000000
   64       43.576789   0.000000
   65       44.012250   0.000000
   66       44.168921   0.000000
   67       44.560570   0.000000
   68       45.148440   0.000000
   69       45.203111   0.000000
   70       45.708679   0.000000
   71       45.862963   0.000000
   72       46.512343   0.000000
   73       46.572891   0.000000
   74       47.232802   0.000000
   75       47.804222   0.000000
   76       48.591605   0.000000
   77       48.769034   0.000000
   78       49.007193   0.000000
   79       49.578666   0.000000
   80       49.667830   0.000000
   81       50.022022   0.000000
   82       50.103255   0.000000
   83       50.505353   0.000000
   84       50.592492   0.000000
   85       50.619665   0.000000
   86       52.041044   0.000000
   87       52.628986   0.000000
   88       52.684155   0.000000
   89       53.155864   0.000000
   90       54.079272   0.000000
   91       54.566798   0.000000
   92       55.003201   0.000000
   93       55.222661   0.000000
   94       55.710576   0.000000
   95       56.042059   0.000000
   96       56.351656   0.000000
   97       56.658381   0.000000
   98       56.756054   0.000000
   99       57.120043   0.000000
  100       59.346127   0.000000
  101       60.066484   0.000000
  102       60.176532   0.000000
  103       60.594778   0.000000
  104       61.507215   0.000000
  105       61.737903   0.000000
  106       61.826899   0.000000
  107       62.060853   0.000000
  108       62.697903   0.000000
  109       62.782338   0.000000
  110       63.318967   0.000000
  111       64.177214   0.000000
  112       65.037677   0.000000
  113       65.982488   0.000000
  114       66.439795   0.000000
  115       66.991866   0.000000
  116       66.993559   0.000000
  117       67.807649   0.000000
  118       68.939077   0.000000
  119       69.131544   0.000000
  120       69.784555   0.000000
  121       69.915907   0.000000
  122       70.759306   0.000000
  123       70.915553   0.000000
  124       72.291603   0.000000
  125       72.392116   0.000000
  126       72.715310   0.000000
  127       73.711173   0.000000
  128       73.750941   0.000000
 
  0.2812500E+00  0.3125000E-01  0.0000000E+00  0.1562500E-01
    1      -19.639955   1.000000
    2      -11.092180   1.000000
    3       -7.807734   1.000000
    4       -7.493757   1.000000
    5        3.131680   0.000000
    6        3.631481   0.000000
    7        4.559772   0.000000
    8        5.091282   0.000000
    9        5.393365   0.000000
   10        6.769536   0.000000
   11        7.521966   0.000000
   12       10.269541   0.000000
   13       11.399595   0.000000
   14       11.867330   0.000000
   15       12.400517   0.000000
   16       14.491528   0.000000
   17       16.282601   0.000000
   18       16.620803   0.000000
   19       16.905700   0.000000
   20       18.025772   0.000000
   21       18.221681   0.000000
   22       19.887486   0.000000
   23       20.349791   0.000000
   24       20.754418   0.000000
   25       22.137261   0.000000
   26       22.442220   0.000000
   27       23.766885   0.000000
   28       24.361153   0.000000
   29       24.482475   0.000000
   30       25.480875   0.000000
   31       25.832648   0.000000
   32       26.187334   0.000000
   33       27.568020   0.000000
   34       27.947645   0.000000
   35       28.436283   0.000000
   36       28.772094   0.000000
   37       29.329026   0.000000
   38       29.721761   0.000000
   39       29.996776   0.000000
   40       30.331862   0.000000
   41       31.174016   0.000000
   42       31.392710   0.000000
   43       31.822126   0.000000
   44       32.113627   0.000000
   45       32.778875   0.000000
   46       33.754073   0.000000
   47       35.526847   0.000000
   48       35.837862   0.000000
   49       36.400387   0.000000
   50       36.461582   0.000000
   51       37.167876   0.000000
   52       37.416485   0.000000
   53       37.940552   0.000000
   54       39.105890   0.000000
   55       39.516002   0.000000
   56       39.646576   0.000000
   57       41.406147   0.000000
   58       41.452007   0.000000
   59       41.906440   0.000000
   60       43.065680   0.000000
   61       44.143217   0.000000
   62       44.185177   0.000000
   63       44.334306   0.000000
   64       45.211051   0.000000
   65       45.497933   0.000000
   66       45.716452   0.000000
   67       46.277156   0.000000
   68       46.314577   0.000000
   69       46.965265   0.000000
   70       46.966707   0.000000
   71       47.807224   0.000000
   72       48.007247   0.000000
   73       48.279840   0.000000
   74       48.525485   0.000000
   75       48.970981   0.000000
   76       49.292873   0.000000
   77       50.095061   0.000000
   78       51.049769   0.000000
   79       51.285017   0.000000
   80       51.840376   0.000000
   81       52.268997   0.000000
   82       52.590865   0.000000
   83       52.901151   0.000000
   84       52.905280   0.000000
   85       53.237213   0.000000
   86       53.726398   0.000000
   87       54.001270   0.000000
   88       54.916390   0.000000
   89       55.217423   0.000000
   90       55.321098   0.000000
   91       55.837398   0.000000
   92       56.798604   0.000000
   93       56.850609   0.000000
   94       57.448501   0.000000
   95       57.540467   0.000000
   96       58.186925   0.000000
   97       58.248124   0.000000
   98       58.692435   0.000000
   99       60.331990   0.000000
  100       60.599466   0.000000
  101       61.021823   0.000000
  102       61.363528   0.000000
  103       61.536248   0.000000
  104       62.093290   0.000000
  105       62.664408   0.000000
  106       63.214830   0.000000
  107       63.290279   0.000000
  108       63.843228   0.000000
  109       64.190303   0.000000
  110       64.742152   0.000000
  111       64.763168   0.000000
  112       65.126923   0.000000
  113       65.385931   0.000000
  114       66.300849   0.000000
  115       66.686312   0.000000
  116       67.176864   0.000000
  117       67.305683   0.000000
  118       67.896401   0.000000
  119       68.910947   0.000000
  120       69.058605   0.000000
  121       70.204360   0.000000
  122       70.894219   0.000000
  123       70.957763   0.000000
  124       71.250187   0.000000
  125       71.870663   0.000000
  126       72.502497   0.000000
  127       72.693615   0.000000
  128       72.880128   0.000000
 
  0.3437500E+00  0.3125000E-01  0.0000000E+00  0.1562500E-01
    1      -18.751389   1.000000
    2      -12.667152   1.000000
    3       -8.242354   1.000000
    4       -6.526603   1.000000
    5        1.522494   0.000000
    6        4.842314   0.000000
    7        5.192360   0.000000
    8        5.797887   0.000000
    9        6.388230   0.000000
   10        8.005511   0.000000
   11        8.766943   0.000000
   12       11.372613   0.000000
   13       12.381482   0.000000
   14       12.662139   0.000000
   15       13.744871   0.000000
   16       13.809986   0.000000
   17       14.897269   0.000000
   18       15.488374   0.000000
   19       15.853168   0.000000
   20       16.728009   0.000000
   21       17.726784   0.000000
   22       18.239061   0.000000
   23       18.366409   0.000000
   24       19.860957   0.000000
   25       21.392227   0.000000
   26       21.505323   0.000000
   27       23.148066   0.000000
   28       23.662542   0.000000
   29       24.036156   0.000000
   30       25.126436   0.000000
   31       25.417525   0.000000
   32       25.693382   0.000000
   33       26.327145   0.000000
   34       27.150346   0.000000
   35       27.526764   0.000000
   36       27.630692   0.000000
   37       28.276798   0.000000
   38       28.684963   0.000000
   39       29.014599   0.000000
   40       30.354229   0.000000
   41       30.591004   0.000000
   42       31.031013   0.000000
   43       31.446428   0.000000
   44       31.886966   0.000000
   45       32.852741   0.000000
   46       33.141830   0.000000
   47       34.018696   0.000000
   48       34.451364   0.000000
   49       34.718326   0.000000
   50       36.107657   0.000000
   51       36.220734   0.000000
   52       37.297277   0.000000
   53       37.545715   0.000000
   54       39.356427   0.000000
   55       40.357427   0.000000
   56       40.874571   0.000000
   57       41.228661   0.000000
   58       41.559813   0.000000
   59       41.700161   0.000000
   60       42.657568   0.000000
   61       43.126448   0.000000
   62       43.771459   0.000000
   63       43.929765   0.000000
   64       46.423561   0.000000
   65       47.049651   0.000000
   66       47.912874   0.000000
   67       48.404034   0.000000
   68       48.499195   0.000000
   69       49.139115   0.000000
   70       49.506230   0.000000
   71       49.733174   0.000000
   72       50.101358   0.000000
   73       50.116390   0.000000
   74       50.873426   0.000000
   75       51.326804   0.000000
   76       51.468321   0.000000
   77       52.079936   0.000000
   78       52.084393   0.000000
   79       52.158278   0.000000
   80       52.301687   0.000000
   81       52.736561   0.000000
   82       53.434762   0.000000
   83       54.371830   0.000000
   84       54.558856   0.000000
   85       55.179240   0.000000
   86       55.237954   0.000000
   87       55.786194   0.000000
   88       55.978723   0.000000
   89       56.422127   0.000000
   90       57.642560   0.000000
   91       58.863485   0.000000
   92       59.204017   0.000000
   93       59.453948   0.000000
   94       59.999739   0.000000
   95       60.428023   0.000000
   96       60.442226   0.000000
   97       60.897104   0.000000
   98       60.966924   0.000000
   99       61.076709   0.000000
  100       61.602753   0.000000
  101       61.872866   0.000000
  102       61.987672   0.000000
  103       62.694509   0.000000
  104       62.704512   0.000000
  105       63.172781   0.000000
  106       63.345848   0.000000
  107       63.688727   0.000000
  108       64.102268   0.000000
  109       64.396729   0.000000
  110       64.462510   0.000000
  111       64.567638   0.000000
  112       64.781390   0.000000
  113       66.238641   0.000000
  114       66.644995   0.000000
  115       66.736772   0.000000
  116       66.899880   0.000000
  117       67.444551   0.000000
  118       68.036311   0.000000
  119       68.205368   0.000000
  120       68.361182   0.000000
  121       69.442476   0.000000
  122       69.636304   0.000000
  123       70.363545   0.000000
  124       70.487626   0.000000
  125       70.738807   0.000000
  126       70.872268   0.000000
  127       71.035949   0.000000
  128       71.818341   0.000000
 
  0.4062500E+00  0.3125000E-01  0.0000000E+00  0.1562500E-01
    1      -17.734992   1.000000
    2      -14.142059   1.000000
    3       -8.526974   1.000000
    4       -5.534088   1.000000
    5        0.079436   0.000000
    6        4.982389   0.000000
    7        6.364967   0.000000
    8        7.271456   0.000000
    9        7.905469   0.000000
   10        9.450647   0.000000
   11       10.235706   0.000000
   12       10.899688   0.000000
   13       11.724640   0.000000
   14       12.768047   0.000000
   15       12.780669   0.000000
   16       14.008070   0.000000
   17       14.067537   0.000000
   18       14.639867   0.000000
   19       15.427367   0.000000
   20       15.982021   0.000000
   21       16.980788   0.000000
   22       18.042906   0.000000
   23       18.890206   0.000000
   24       19.081314   0.000000
   25       19.950482   0.000000
   26       20.424035   0.000000
   27       22.759055   0.000000
   28       23.488271   0.000000
   29       23.689096   0.000000
   30       24.748099   0.000000
   31       25.151308   0.000000
   32       25.297471   0.000000
   33       25.677167   0.000000
   34       26.613413   0.000000
   35       27.042167   0.000000
   36       27.151955   0.000000
   37       27.824181   0.000000
   38       28.155000   0.000000
   39       28.482095   0.000000
   40       29.550160   0.000000
   41       30.456525   0.000000
   42       30.542744   0.000000
   43       31.090974   0.000000
   44       31.362594   0.000000
   45       31.800758   0.000000
   46       32.927900   0.000000
   47       33.379094   0.000000
   48       34.120719   0.000000
   49       34.427171   0.000000
   50       35.330414   0.000000
   51       35.796941   0.000000
   52       36.919399   0.000000
   53       37.613685   0.000000
   54       39.241012   0.000000
   55       39.419023   0.000000
   56       40.112970   0.000000
   57       40.902726   0.000000
   58       41.731197   0.000000
   59       42.309910   0.000000
   60       43.632286   0.000000
   61       44.257321   0.000000
   62       44.566691   0.000000
   63       45.723874   0.000000
   64       46.574574   0.000000
   65       46.578806   0.000000
   66       47.363411   0.000000
   67       48.551644   0.000000
   68       49.044353   0.000000
   69       50.327977   0.000000
   70       51.316117   0.000000
   71       51.811157   0.000000
   72       51.866147   0.000000
   73       52.834882   0.000000
   74       52.931538   0.000000
   75       53.001508   0.000000
   76       53.286105   0.000000
   77       53.315274   0.000000
   78       53.738934   0.000000
   79       54.094277   0.000000
   80       54.184593   0.000000
   81       54.964091   0.000000
   82       55.192085   0.000000
   83       55.380100   0.000000
   84       55.704911   0.000000
   85       56.049640   0.000000
   86       56.985967   0.000000
   87       57.354402   0.000000
   88       57.706947   0.000000
   89       58.546106   0.000000
   90       58.611774   0.000000
   91       59.115273   0.000000
   92       59.440306   0.000000
   93       59.878972   0.000000
   94       59.928081   0.000000
   95       59.980026   0.000000
   96       60.214746   0.000000
   97       60.560059   0.000000
   98       60.647030   0.000000
   99       61.231216   0.000000
  100       62.365296   0.000000
  101       62.686723   0.000000
  102       63.090565   0.000000
  103       63.527058   0.000000
  104       63.565648   0.000000
  105       64.292011   0.000000
  106       64.657844   0.000000
  107       64.897732   0.000000
  108       65.099395   0.000000
  109       65.350899   0.000000
  110       65.750822   0.000000
  111       65.832568   0.000000
  112       65.967230   0.000000
  113       65.994265   0.000000
  114       66.123577   0.000000
  115       66.387227   0.000000
  116       66.422068   0.000000
  117       66.708113   0.000000
  118       67.854488   0.000000
  119       68.258078   0.000000
  120       68.363313   0.000000
  121       68.538639   0.000000