 vasp.5.4.4.18Apr17-6-g9f103f2a35 (build Nov 22 2017 20:28:56) complex          
  
 executed on             LinuxIFC date 2019.10.06  19:58:53
 running on   28 total cores
 distrk:  each k-point on   28 cores,    1 groups
 distr:  one band on NCORES_PER_BAND=   7 cores,    4 groups


--------------------------------------------------------------------------------------------------------


 INCAR:
 POTCAR:   PAW_PBE C 08Apr2002                    
 POTCAR:   PAW_PBE C 08Apr2002                    
   VRHFIN =C: s2p2                                                              
   LEXCH  = PE                                                                  
   EATOM  =   147.1560 eV,   10.8157 Ry                                         
                                                                                
   TITEL  = PAW_PBE C 08Apr2002                                                 
   LULTRA =        F    use ultrasoft PP ?                                      
   IUNSCR =        0    unscreen: 0-lin 1-nonlin 2-no                           
   RPACOR =     .000    partial core radius                                     
   POMASS =   12.011; ZVAL   =    4.000    mass and valenz                      
   RCORE  =    1.500    outmost cutoff radius                                   
   RWIGS  =    1.630; RWIGS  =     .863    wigner-seitz radius (au A)           
   ENMAX  =  400.000; ENMIN  =  300.000 eV                                      
   ICORE  =        2    local potential                                         
   LCOR   =        T    correct aug charges                                     
   LPAW   =        T    paw PP                                                  
   EAUG   =  644.873                                                            
   DEXC   =     .000                                                            
   RMAX   =    2.266    core radius for proj-oper                               
   RAUG   =    1.300    factor for augmentation sphere                          
   RDEP   =    1.501    radius for radial grids                                 
   RDEPT  =    1.300    core radius for aug-charge                              
   QCUT   =   -5.516; QGAM   =   11.032    optimization parameters              
                                                                                
   Description                                                                  
     l     E      TYP  RCUT    TYP  RCUT                                        
     0   .000     23  1.200                                                     
     0   .000     23  1.200                                                     
     1   .000     23  1.500                                                     
     1  2.500     23  1.500                                                     
     2   .000      7  1.500                                                     
  local pseudopotential read in
  atomic valenz-charges read in
  non local Contribution for L=           0  read in
    real space projection operators read in
  non local Contribution for L=           0  read in
    real space projection operators read in
  non local Contribution for L=           1  read in
    real space projection operators read in
  non local Contribution for L=           1  read in
    real space projection operators read in
    PAW grid and wavefunctions read in
 
   number of l-projection  operators is LMAX  =           4
   number of lm-projection operators is LMMAX =           8
 
 PAW_PBE C 08Apr2002                    :
 energy of atom  1       EATOM= -147.1560
 kinetic energy error for atom=    0.0071 (will be added to EATOM!!)
 
 
 POSCAR:  C                                      
  positions in direct lattice
  No initial velocities read in
 exchange correlation table for  LEXCH =        8
   RHO(1)=    0.500       N(1)  =     2000
   RHO(2)=  100.500       N(2)  =     4000
 


--------------------------------------------------------------------------------------------------------


 ion  position               nearest neighbor table
   1  0.667  0.333  0.500-   2 1.43   2 1.46   2 1.46
   2  0.333  0.667  0.500-   1 1.43   1 1.46   1 1.46
 
  LATTYP: Found a base centered orthorhombic cell.
 ALAT       =     2.5424662383
 B/A-ratio  =     1.6816069569
 C/A-ratio  =     6.1052506849
  
  Lattice vectors:
  
 A1 = (   1.2712331191,  -2.1377144570,   0.0000000000)
 A2 = (   1.2712331191,   2.1377144570,   0.0000000000)
 A3 = (   0.0000000000,   0.0000000000,  15.5223937426)


Analysis of symmetry for initial positions (statically):
=====================================================================
 Subroutine PRICEL returns:
 Original cell was already a primitive cell.
 

 Routine SETGRP: Setting up the symmetry group for a 
 base centered orthorhombic supercell.


 Subroutine GETGRP returns: Found  8 space group operations
 (whereof  8 operations were pure point group operations)
 out of a pool of  8 trial point group operations.


The static configuration has the point symmetry D_2h.


Analysis of symmetry for dynamics (positions and initial velocities):
=====================================================================
 Subroutine PRICEL returns:
 Original cell was already a primitive cell.
 

 Routine SETGRP: Setting up the symmetry group for a 
 base centered orthorhombic supercell.


 Subroutine GETGRP returns: Found  8 space group operations
 (whereof  8 operations were pure point group operations)
 out of a pool of  8 trial point group operations.


The dynamic configuration has the point symmetry D_2h.


 Subroutine INISYM returns: Found  8 space group operations
 (whereof  8 operations are pure point group operations),
 and found     1 'primitive' translations

 
 
 KPOINTS: A                                       

Automatic generation of k-mesh.
Space group operators:
 irot       det(A)        alpha          n_x          n_y          n_z        tau_x        tau_y        tau_z
    1     1.000000     0.000000     1.000000     0.000000     0.000000     0.000000     0.000000     0.000000
    2    -1.000000     0.000000     1.000000     0.000000     0.000000     0.000000     0.000000     0.000000
    3     1.000000   180.000000     0.000000     0.000000     1.000000     0.000000     0.000000     0.000000
    4    -1.000000   180.000000     0.000000     0.000000     1.000000     0.000000     0.000000     0.000000
    5     1.000000   180.000000     0.000000     1.000000     0.000000     0.000000     0.000000     0.000000
    6    -1.000000   180.000000     0.000000     1.000000     0.000000     0.000000     0.000000     0.000000
    7     1.000000   180.000000     1.000000     0.000000     0.000000     0.000000     0.000000     0.000000
    8    -1.000000   180.000000     1.000000     0.000000     0.000000     0.000000     0.000000     0.000000
 
 Subroutine IBZKPT returns following result:
 ===========================================
 
 Found     72 irreducible k-points:
 
 Following reciprocal coordinates:
            Coordinates               Weight
  0.031250  0.031250  0.000000      2.000000
  0.093750  0.031250  0.000000      4.000000
  0.156250  0.031250  0.000000      4.000000
  0.218750  0.031250  0.000000      4.000000
  0.281250  0.031250  0.000000      4.000000
  0.343750  0.031250  0.000000      4.000000
  0.406250  0.031250  0.000000      4.000000
  0.468750  0.031250  0.000000      4.000000
 -0.468750  0.031250  0.000000      4.000000
 -0.406250  0.031250  0.000000      4.000000
 -0.343750  0.031250  0.000000      4.000000
 -0.281250  0.031250  0.000000      4.000000
 -0.218750  0.031250  0.000000      4.000000
 -0.156250  0.031250  0.000000      4.000000
 -0.093750  0.031250  0.000000      4.000000
 -0.031250  0.031250  0.000000      2.000000
  0.093750  0.093750  0.000000      2.000000
  0.156250  0.093750  0.000000      4.000000
  0.218750  0.093750  0.000000      4.000000
  0.281250  0.093750  0.000000      4.000000
  0.343750  0.093750  0.000000      4.000000
  0.406250  0.093750  0.000000      4.000000
  0.468750  0.093750  0.000000      4.000000
 -0.468750  0.093750  0.000000      4.000000
 -0.406250  0.093750  0.000000      4.000000
 -0.343750  0.093750  0.000000      4.000000
 -0.281250  0.093750  0.000000      4.000000
 -0.218750  0.093750  0.000000      4.000000
 -0.156250  0.093750  0.000000      4.000000
 -0.093750  0.093750  0.000000      2.000000
  0.156250  0.156250  0.000000      2.000000
  0.218750  0.156250  0.000000      4.000000
  0.281250  0.156250  0.000000      4.000000
  0.343750  0.156250  0.000000      4.000000
  0.406250  0.156250  0.000000      4.000000
  0.468750  0.156250  0.000000      4.000000
 -0.468750  0.156250  0.000000      4.000000
 -0.406250  0.156250  0.000000      4.000000
 -0.343750  0.156250  0.000000      4.000000
 -0.281250  0.156250  0.000000      4.000000
 -0.218750  0.156250  0.000000      4.000000
 -0.156250  0.156250  0.000000      2.000000
  0.218750  0.218750  0.000000      2.000000
  0.281250  0.218750  0.000000      4.000000
  0.343750  0.218750  0.000000      4.000000
  0.406250  0.218750  0.000000      4.000000
  0.468750  0.218750  0.000000      4.000000
 -0.468750  0.218750  0.000000      4.000000
 -0.406250  0.218750  0.000000      4.000000
 -0.343750  0.218750  0.000000      4.000000
 -0.281250  0.218750  0.000000      4.000000
 -0.218750  0.218750  0.000000      2.000000
  0.281250  0.281250  0.000000      2.000000
  0.343750  0.281250  0.000000      4.000000
  0.406250  0.281250  0.000000      4.000000
  0.468750  0.281250  0.000000      4.000000
 -0.468750  0.281250  0.000000      4.000000
 -0.406250  0.281250  0.000000      4.000000
 -0.343750  0.281250  0.000000      4.000000
 -0.281250  0.281250  0.000000      2.000000
  0.343750  0.343750  0.000000      2.000000
  0.406250  0.343750  0.000000      4.000000
  0.468750  0.343750  0.000000      4.000000
 -0.468750  0.343750  0.000000      4.000000
 -0.406250  0.343750  0.000000      4.000000
 -0.343750  0.343750  0.000000      2.000000
  0.406250  0.406250  0.000000      2.000000
  0.468750  0.406250  0.000000      4.000000
 -0.468750  0.406250  0.000000      4.000000
 -0.406250  0.406250  0.000000      2.000000
  0.468750  0.468750  0.000000      2.000000
 -0.468750  0.468750  0.000000      2.000000
 
 Following cartesian coordinates:
            Coordinates               Weight
  0.024582  0.000000  0.000000      2.000000
  0.049165 -0.014618  0.000000      4.000000
  0.073747 -0.029237  0.000000      4.000000
  0.098330 -0.043855  0.000000      4.000000
  0.122912 -0.058474  0.000000      4.000000
  0.147495 -0.073092  0.000000      4.000000
  0.172077 -0.087710  0.000000      4.000000
  0.196659 -0.102329  0.000000      4.000000
 -0.172077  0.116947  0.000000      4.000000
 -0.147495  0.102329  0.000000      4.000000
 -0.122912  0.087710  0.000000      4.000000
 -0.098330  0.073092  0.000000      4.000000
 -0.073747  0.058474  0.000000      4.000000
 -0.049165  0.043855  0.000000      4.000000
 -0.024582  0.029237  0.000000      4.000000
  0.000000  0.014618  0.000000      2.000000
  0.073747  0.000000  0.000000      2.000000
  0.098330 -0.014618  0.000000      4.000000
  0.122912 -0.029237  0.000000      4.000000
  0.147495 -0.043855  0.000000      4.000000
  0.172077 -0.058474  0.000000      4.000000
  0.196659 -0.073092  0.000000      4.000000
  0.221242 -0.087710  0.000000      4.000000
 -0.147495  0.131566  0.000000      4.000000
 -0.122912  0.116947  0.000000      4.000000
 -0.098330  0.102329  0.000000      4.000000
 -0.073747  0.087710  0.000000      4.000000
 -0.049165  0.073092  0.000000      4.000000
 -0.024582  0.058474  0.000000      4.000000
  0.000000  0.043855  0.000000      2.000000
  0.122912  0.000000  0.000000      2.000000
  0.147495 -0.014618  0.000000      4.000000
  0.172077 -0.029237  0.000000      4.000000
  0.196659 -0.043855  0.000000      4.000000
  0.221242 -0.058474  0.000000      4.000000
  0.245824 -0.073092  0.000000      4.000000
 -0.122912  0.146184  0.000000      4.000000
 -0.098330  0.131566  0.000000      4.000000
 -0.073747  0.116947  0.000000      4.000000
 -0.049165  0.102329  0.000000      4.000000
 -0.024582  0.087710  0.000000      4.000000
  0.000000  0.073092  0.000000      2.000000
  0.172077  0.000000  0.000000      2.000000
  0.196659 -0.014618  0.000000      4.000000
  0.221242 -0.029237  0.000000      4.000000
  0.245824 -0.043855  0.000000      4.000000
  0.270407 -0.058474  0.000000      4.000000
 -0.098330  0.160803  0.000000      4.000000
 -0.073747  0.146184  0.000000      4.000000
 -0.049165  0.131566  0.000000      4.000000
 -0.024582  0.116947  0.000000      4.000000
  0.000000  0.102329  0.000000      2.000000
  0.221242  0.000000  0.000000      2.000000
  0.245824 -0.014618  0.000000      4.000000
  0.270407 -0.029237  0.000000      4.000000
  0.294989 -0.043855  0.000000      4.000000
 -0.073747  0.175421  0.000000      4.000000
 -0.049165  0.160803  0.000000      4.000000
 -0.024582  0.146184  0.000000      4.000000
  0.000000  0.131566  0.000000      2.000000
  0.270407  0.000000  0.000000      2.000000
  0.294989 -0.014618  0.000000      4.000000
  0.319572 -0.029237  0.000000      4.000000
 -0.049165  0.190039  0.000000      4.000000
 -0.024582  0.175421  0.000000      4.000000
  0.000000  0.160803  0.000000      2.000000
  0.319572  0.000000  0.000000      2.000000
  0.344154 -0.014618  0.000000      4.000000
 -0.024582  0.204658  0.000000      4.000000
  0.000000  0.190039  0.000000      2.000000
  0.368736  0.000000  0.000000      2.000000
  0.000000  0.219276  0.000000      2.000000
 


--------------------------------------------------------------------------------------------------------




 Dimension of arrays:
   k-points           NKPTS =     72   k-points in BZ     NKDIM =     72   number of bands    NBANDS=    128
   number of dos      NEDOS =    301   number of ions     NIONS =      2
   non local maximal  LDIM  =      4   non local SUM 2l+1 LMDIM =      8
   total plane-waves  NPLWV =  38880
   max r-space proj   IRMAX =      1   max aug-charges    IRDMAX=   5637
   dimension x,y,z NGX =    18 NGY =   18 NGZ =  120
   dimension x,y,z NGXF=    36 NGYF=   36 NGZF=  240
   support grid    NGXF=    36 NGYF=   36 NGZF=  240
   ions per type =               2
   NGX,Y,Z   is equivalent  to a cutoff of  12.03, 12.03, 12.85 a.u.
   NGXF,Y,Z  is equivalent  to a cutoff of  24.06, 24.06, 25.70 a.u.

 SYSTEM =  unknown system                          
 POSCAR =   C                                      

 Startparameter for this run:
   NWRITE =      2    write-flag & timer
   PREC   = accura    normal or accurate (medium, high low for compatibility)
   ISTART =      0    job   : 0-new  1-cont  2-samecut
   ICHARG =      2    charge: 1-file 2-atom 10-const
   ISPIN  =      1    spin polarized calculation?
   LNONCOLLINEAR =      F non collinear calculations
   LSORBIT =      F    spin-orbit coupling
   INIWAV =      1    electr: 0-lowe 1-rand  2-diag
   LASPH  =      F    aspherical Exc in radial PAW
   METAGGA=      F    non-selfconsistent MetaGGA calc.

 Electronic Relaxation 1
   ENCUT  =  520.0 eV  38.22 Ry    6.18 a.u.   4.62  4.62 28.86*2*pi/ulx,y,z
   ENINI  =  520.0     initial cutoff
   ENAUG  =  644.9 eV  augmentation charge cutoff
   NELM   =     60;   NELMIN=  2; NELMDL= -5     # of ELM steps 
   EDIFF  = 0.1E-05   stopping-criterion for ELM
   LREAL  =      F    real-space projection
   NLSPLINE    = F    spline interpolate recip. space projectors
   LCOMPAT=      F    compatible to vasp.4.4
   GGA_COMPAT  = T    GGA compatible to vasp.4.4-vasp.4.6
   LMAXPAW     = -100 max onsite density
   LMAXMIX     =    2 max onsite mixed and CHGCAR
   VOSKOWN=      0    Vosko Wilk Nusair interpolation
   ROPT   =    0.00000
 Ionic relaxation
   EDIFFG = 0.1E-04   stopping-criterion for IOM
   NSW    =     50    number of steps for IOM
   NBLOCK =      1;   KBLOCK =     50    inner block; outer block 
   IBRION =      2    ionic relax: 0-MD 1-quasi-New 2-CG
   NFREE  =      1    steps in history (QN), initial steepest desc. (CG)
   ISIF   =      2    stress and relaxation
   IWAVPR =     11    prediction:  0-non 1-charg 2-wave 3-comb
   ISYM   =      2    0-nonsym 1-usesym 2-fastsym
   LCORR  =      T    Harris-Foulkes like correction to forces

   POTIM  = 0.1000    time-step for ionic-motion
   TEIN   =    0.0    initial temperature
   TEBEG  =    0.0;   TEEND  =   0.0 temperature during run
   SMASS  =  -3.00    Nose mass-parameter (am)
   estimated Nose-frequenzy (Omega)   =  0.10E-29 period in steps =****** mass=  -0.141E-27a.u.
   SCALEE = 1.0000    scale energy and forces
   NPACO  =    256;   APACO  = 16.0  distance and # of slots for P.C.
   PSTRESS=    0.0 pullay stress

  Mass of Ions in am
   POMASS =  12.01
  Ionic Valenz
   ZVAL   =   4.00
  Atomic Wigner-Seitz radii
   RWIGS  =  -1.00
  virtual crystal weights 
   VCA    =   1.00
   NELECT =       8.0000    total number of electrons
   NUPDOWN=      -1.0000    fix difference up-down

 DOS related values:
   EMIN   =  10.00;   EMAX   =-10.00  energy-range for DOS
   EFERMI =   0.00
   ISMEAR =     0;   SIGMA  =   0.10  broadening in eV -4-tet -1-fermi 0-gaus

 Electronic relaxation 2 (details)
   IALGO  =     38    algorithm
   LDIAG  =      T    sub-space diagonalisation (order eigenvalues)
   LSUBROT=      F    optimize rotation matrix (better conditioning)
   TURBO    =      0    0=normal 1=particle mesh
   IRESTART =      0    0=no restart 2=restart with 2 vectors
   NREBOOT  =      0    no. of reboots
   NMIN     =      0    reboot dimension
   EREF     =   0.00    reference energy to select bands
   IMIX   =      4    mixing-type and parameters
     AMIX     =   0.40;   BMIX     =  1.00
     AMIX_MAG =   1.60;   BMIX_MAG =  1.00
     AMIN     =   0.10
     WC   =   100.;   INIMIX=   1;  MIXPRE=   1;  MAXMIX= -45

 Intra band minimization:
   WEIMIN = 0.0010     energy-eigenvalue tresh-hold
   EBREAK =  0.20E-08  absolut break condition
   DEPER  =   0.30     relativ break condition  

   TIME   =   0.40     timestep for ELM

  volume/ion in A,a.u.               =      42.18       284.66
  Fermi-wavevector in a.u.,A,eV,Ry     =   0.746535  1.410747  7.582729  0.557315
  Thomas-Fermi vector in A             =   1.842379
 
 Write flags
   LWAVE        =      F    write WAVECAR
   LDOWNSAMPLE  =      F    k-point downsampling of WAVECAR
   LCHARG       =      F    write CHGCAR
   LVTOT        =      F    write LOCPOT, total local potential
   LVHAR        =      F    write LOCPOT, Hartree potential only
   LELF         =      F    write electronic localiz. function (ELF)
   LORBIT       =      0    0 simple, 1 ext, 2 COOP (PROOUT), +10 PAW based schemes


 Dipole corrections
   LMONO  =      F    monopole corrections only (constant potential shift)
   LDIPOL =      F    correct potential (dipole corrections)
   IDIPOL =      0    1-x, 2-y, 3-z, 4-all directions 
   EPSILON=  1.0000000 bulk dielectric constant

 Exchange correlation treatment:
   GGA     =    --    GGA type
   LEXCH   =     8    internal setting for exchange type
   VOSKOWN=      0    Vosko Wilk Nusair interpolation
   LHFCALC =     F    Hartree Fock is set to
   LHFONE  =     F    Hartree Fock one center treatment
   AEXX    =    0.0000 exact exchange contribution

 Linear response parameters
   LEPSILON=     F    determine dielectric tensor
   LRPA    =     F    only Hartree local field effects (RPA)
   LNABLA  =     F    use nabla operator in PAW spheres
   LVEL    =     F    velocity operator in full k-point grid
   LINTERFAST=   F  fast interpolation
   KINTER  =     0    interpolate to denser k-point grid
   CSHIFT  =0.1000    complex shift for real part using Kramers Kronig
   OMEGAMAX=  -1.0    maximum frequency
   DEG_THRESHOLD= 0.2000000E-02 threshold for treating states as degnerate
   RTIME   =   -0.100 relaxation time in fs
  (WPLASMAI=    0.000 imaginary part of plasma frequency in eV, 0.658/RTIME)
   DFIELD  = 0.0000000 0.0000000 0.0000000 field for delta impulse in time
 
 Orbital magnetization related:
   ORBITALMAG=     F  switch on orbital magnetization
   LCHIMAG   =     F  perturbation theory with respect to B field
   DQ        =  0.001000  dq finite difference perturbation B field
   LLRAUG    =     F  two centre corrections for induced B field



--------------------------------------------------------------------------------------------------------


 conjugate gradient relaxation of ions
 charge density and potential will be updated during run
 non-spin polarized calculation
 Variant of blocked Davidson
 Davidson routine will perform the subspace rotation
 perform sub-space diagonalisation
    after iterative eigenvector-optimisation
 modified Broyden-mixing scheme, WC =      100.0
 initial mixing is a Kerker type mixing with AMIX =  0.4000 and BMIX =      1.0000
 Hartree-type preconditioning will be used
 using additional bands          124
 reciprocal scheme for non local part
 calculate Harris-corrections to forces 
   (improved forces if not selfconsistent)
 use gradient corrections 
 use of overlap-Matrix (Vanderbilt PP)
 Gauss-broadening in eV      SIGMA  =   0.10


--------------------------------------------------------------------------------------------------------


  energy-cutoff  :      520.00
  volume of cell :       84.37
      direct lattice vectors                 reciprocal lattice vectors
     1.271233119 -2.137714457  0.000000000     0.393318891 -0.233894662  0.000000000
     1.271233119  2.137714457  0.000000000     0.393318891  0.233894662  0.000000000
     0.000000000  0.000000000 15.522393743     0.000000000  0.000000000  0.064423053

  length of vectors
     2.487138264  2.487138264 15.522393743     0.457609509  0.457609509  0.064423053


 
 k-points in units of 2pi/SCALE and weight: A                                       
   0.02458243  0.00000000  0.00000000       0.008
   0.04916486 -0.01461842  0.00000000       0.016
   0.07374729 -0.02923683  0.00000000       0.016
   0.09832972 -0.04385525  0.00000000       0.016
   0.12291215 -0.05847367  0.00000000       0.016
   0.14749458 -0.07309208  0.00000000       0.016
   0.17207701 -0.08771050  0.00000000       0.016
   0.19665945 -0.10232891  0.00000000       0.016
  -0.17207701  0.11694733  0.00000000       0.016
  -0.14749458  0.10232891  0.00000000       0.016
  -0.12291215  0.08771050  0.00000000       0.016
  -0.09832972  0.07309208  0.00000000       0.016
  -0.07374729  0.05847367  0.00000000       0.016
  -0.04916486  0.04385525  0.00000000       0.016
  -0.02458243  0.02923683  0.00000000       0.016
   0.00000000  0.01461842  0.00000000       0.008
   0.07374729  0.00000000  0.00000000       0.008
   0.09832972 -0.01461842  0.00000000       0.016
   0.12291215 -0.02923683  0.00000000       0.016
   0.14749458 -0.04385525  0.00000000       0.016
   0.17207701 -0.05847367  0.00000000       0.016
   0.19665945 -0.07309208  0.00000000       0.016
   0.22124188 -0.08771050  0.00000000       0.016
  -0.14749458  0.13156575  0.00000000       0.016
  -0.12291215  0.11694733  0.00000000       0.016
  -0.09832972  0.10232891  0.00000000       0.016
  -0.07374729  0.08771050  0.00000000       0.016
  -0.04916486  0.07309208  0.00000000       0.016
  -0.02458243  0.05847367  0.00000000       0.016
   0.00000000  0.04385525  0.00000000       0.008
   0.12291215  0.00000000  0.00000000       0.008
   0.14749458 -0.01461842  0.00000000       0.016
   0.17207701 -0.02923683  0.00000000       0.016
   0.19665945 -0.04385525  0.00000000       0.016
   0.22124188 -0.05847367  0.00000000       0.016
   0.24582431 -0.07309208  0.00000000       0.016
  -0.12291215  0.14618416  0.00000000       0.016
  -0.09832972  0.13156575  0.00000000       0.016
  -0.07374729  0.11694733  0.00000000       0.016
  -0.04916486  0.10232891  0.00000000       0.016
  -0.02458243  0.08771050  0.00000000       0.016
   0.00000000  0.07309208  0.00000000       0.008
   0.17207701  0.00000000  0.00000000       0.008
   0.19665945 -0.01461842  0.00000000       0.016
   0.22124188 -0.02923683  0.00000000       0.016
   0.24582431 -0.04385525  0.00000000       0.016
   0.27040674 -0.05847367  0.00000000       0.016
  -0.09832972  0.16080258  0.00000000       0.016
  -0.07374729  0.14618416  0.00000000       0.016
  -0.04916486  0.13156575  0.00000000       0.016
  -0.02458243  0.11694733  0.00000000       0.016
   0.00000000  0.10232891  0.00000000       0.008
   0.22124188  0.00000000  0.00000000       0.008
   0.24582431 -0.01461842  0.00000000       0.016
   0.27040674 -0.02923683  0.00000000       0.016
   0.29498917 -0.04385525  0.00000000       0.016
  -0.07374729  0.17542100  0.00000000       0.016
  -0.04916486  0.16080258  0.00000000       0.016
  -0.02458243  0.14618416  0.00000000       0.016
   0.00000000  0.13156575  0.00000000       0.008
   0.27040674  0.00000000  0.00000000       0.008
   0.29498917 -0.01461842  0.00000000       0.016
   0.31957160 -0.02923683  0.00000000       0.016
  -0.04916486  0.19003941  0.00000000       0.016
  -0.02458243  0.17542100  0.00000000       0.016
   0.00000000  0.16080258  0.00000000       0.008
   0.31957160  0.00000000  0.00000000       0.008
   0.34415403 -0.01461842  0.00000000       0.016
  -0.02458243  0.20465783  0.00000000       0.016
   0.00000000  0.19003941  0.00000000       0.008
   0.36873646  0.00000000  0.00000000       0.008
   0.00000000  0.21927625  0.00000000       0.008
 
 k-points in reciprocal lattice and weights: A                                       
   0.03125000  0.03125000  0.00000000       0.008
   0.09375000  0.03125000  0.00000000       0.016
   0.15625000  0.03125000  0.00000000       0.016
   0.21875000  0.03125000  0.00000000       0.016
   0.28125000  0.03125000  0.00000000       0.016
   0.34375000  0.03125000  0.00000000       0.016
   0.40625000  0.03125000  0.00000000       0.016
   0.46875000  0.03125000  0.00000000       0.016
  -0.46875000  0.03125000  0.00000000       0.016
  -0.40625000  0.03125000  0.00000000       0.016
  -0.34375000  0.03125000  0.00000000       0.016
  -0.28125000  0.03125000  0.00000000       0.016
  -0.21875000  0.03125000  0.00000000       0.016
  -0.15625000  0.03125000  0.00000000       0.016
  -0.09375000  0.03125000  0.00000000       0.016
  -0.03125000  0.03125000  0.00000000       0.008
   0.09375000  0.09375000  0.00000000       0.008
   0.15625000  0.09375000  0.00000000       0.016
   0.21875000  0.09375000  0.00000000       0.016
   0.28125000  0.09375000  0.00000000       0.016
   0.34375000  0.09375000  0.00000000       0.016
   0.40625000  0.09375000  0.00000000       0.016
   0.46875000  0.09375000  0.00000000       0.016
  -0.46875000  0.09375000  0.00000000       0.016
  -0.40625000  0.09375000  0.00000000       0.016
  -0.34375000  0.09375000  0.00000000       0.016
  -0.28125000  0.09375000  0.00000000       0.016
  -0.21875000  0.09375000  0.00000000       0.016
  -0.15625000  0.09375000  0.00000000       0.016
  -0.09375000  0.09375000  0.00000000       0.008
   0.15625000  0.15625000  0.00000000       0.008
   0.21875000  0.15625000  0.00000000       0.016
   0.28125000  0.15625000  0.00000000       0.016
   0.34375000  0.15625000  0.00000000       0.016
   0.40625000  0.15625000  0.00000000       0.016
   0.46875000  0.15625000  0.00000000       0.016
  -0.46875000  0.15625000  0.00000000       0.016
  -0.40625000  0.15625000  0.00000000       0.016
  -0.34375000  0.15625000  0.00000000       0.016
  -0.28125000  0.15625000  0.00000000       0.016
  -0.21875000  0.15625000  0.00000000       0.016
  -0.15625000  0.15625000  0.00000000       0.008
   0.21875000  0.21875000  0.00000000       0.008
   0.28125000  0.21875000  0.00000000       0.016
   0.34375000  0.21875000  0.00000000       0.016
   0.40625000  0.21875000  0.00000000       0.016
   0.46875000  0.21875000  0.00000000       0.016
  -0.46875000  0.21875000  0.00000000       0.016
  -0.40625000  0.21875000  0.00000000       0.016
  -0.34375000  0.21875000  0.00000000       0.016
  -0.28125000  0.21875000  0.00000000       0.016
  -0.21875000  0.21875000  0.00000000       0.008
   0.28125000  0.28125000  0.00000000       0.008
   0.34375000  0.28125000  0.00000000       0.016
   0.40625000  0.28125000  0.00000000       0.016
   0.46875000  0.28125000  0.00000000       0.016
  -0.46875000  0.28125000  0.00000000       0.016
  -0.40625000  0.28125000  0.00000000       0.016
  -0.34375000  0.28125000  0.00000000       0.016
  -0.28125000  0.28125000  0.00000000       0.008
   0.34375000  0.34375000  0.00000000       0.008
   0.40625000  0.34375000  0.00000000       0.016
   0.46875000  0.34375000  0.00000000       0.016
  -0.46875000  0.34375000  0.00000000       0.016
  -0.40625000  0.34375000  0.00000000       0.016
  -0.34375000  0.34375000  0.00000000       0.008
   0.40625000  0.40625000  0.00000000       0.008
   0.46875000  0.40625000  0.00000000       0.016
  -0.46875000  0.40625000  0.00000000       0.016
  -0.40625000  0.40625000  0.00000000       0.008
   0.46875000  0.46875000  0.00000000       0.008
  -0.46875000  0.46875000  0.00000000       0.008
 
 position of ions in fractional coordinates (direct lattice) 
   0.66666762  0.33333238  0.50000000
   0.33333238  0.66666762  0.50000000
 
 position of ions in cartesian coordinates  (Angst):
   1.27123312 -0.71257557  7.76119687
   1.27123312  0.71257557  7.76119687
 


--------------------------------------------------------------------------------------------------------


 k-point  1 :   0.0312 0.0312 0.0000  plane waves:    2275
 k-point  2 :   0.0938 0.0312 0.0000  plane waves:    2282
 k-point  3 :   0.1562 0.0312 0.0000  plane waves:    2278
 k-point  4 :   0.2188 0.0312 0.0000  plane waves:    2284
 k-point  5 :   0.2812 0.0312 0.0000  plane waves:    2285
 k-point  6 :   0.3438 0.0313 0.0000  plane waves:    2284
 k-point  7 :   0.4062 0.0313 0.0000  plane waves:    2285
 k-point  8 :   0.4688 0.0313 0.0000  plane waves:    2265
 k-point  9 :  -0.4688 0.0312 0.0000  plane waves:    2277
 k-point 10 :  -0.4062 0.0312 0.0000  plane waves:    2279
 k-point 11 :  -0.3438 0.0312 0.0000  plane waves:    2275
 k-point 12 :  -0.2812 0.0312 0.0000  plane waves:    2282
 k-point 13 :  -0.2188 0.0312 0.0000  plane waves:    2276
 k-point 14 :  -0.1562 0.0312 0.0000  plane waves:    2291
 k-point 15 :  -0.0938 0.0312 0.0000  plane waves:    2289
 k-point 16 :  -0.0312 0.0312 0.0000  plane waves:    2290
 k-point 17 :   0.0938 0.0938 0.0000  plane waves:    2275
 k-point 18 :   0.1562 0.0938 0.0000  plane waves:    2272
 k-point 19 :   0.2188 0.0938 0.0000  plane waves:    2277
 k-point 20 :   0.2812 0.0938 0.0000  plane waves:    2290
 k-point 21 :   0.3438 0.0938 0.0000  plane waves:    2284
 k-point 22 :   0.4062 0.0938 0.0000  plane waves:    2281
 k-point 23 :   0.4688 0.0938 0.0000  plane waves:    2272
 k-point 24 :  -0.4688 0.0938 0.0000  plane waves:    2274
 k-point 25 :  -0.4062 0.0937 0.0000  plane waves:    2278
 k-point 26 :  -0.3438 0.0937 0.0000  plane waves:    2268
 k-point 27 :  -0.2812 0.0938 0.0000  plane waves:    2291
 k-point 28 :  -0.2188 0.0938 0.0000  plane waves:    2293
 k-point 29 :  -0.1563 0.0938 0.0000  plane waves:    2289
 k-point 30 :  -0.0938 0.0938 0.0000  plane waves:    2292
 k-point 31 :   0.1562 0.1562 0.0000  plane waves:    2271
 k-point 32 :   0.2188 0.1562 0.0000  plane waves:    2277
 k-point 33 :   0.2812 0.1562 0.0000  plane waves:    2282
 k-point 34 :   0.3438 0.1562 0.0000  plane waves:    2276
 k-point 35 :   0.4062 0.1562 0.0000  plane waves:    2259
 k-point 36 :   0.4688 0.1563 0.0000  plane waves:    2265
 k-point 37 :  -0.4688 0.1562 0.0000  plane waves:    2265
 k-point 38 :  -0.4062 0.1562 0.0000  plane waves:    2268
 k-point 39 :  -0.3438 0.1562 0.0000  plane waves:    2275
 k-point 40 :  -0.2812 0.1562 0.0000  plane waves:    2279
 k-point 41 :  -0.2188 0.1562 0.0000  plane waves:    2287
 k-point 42 :  -0.1562 0.1562 0.0000  plane waves:    2290
 k-point 43 :   0.2188 0.2188 0.0000  plane waves:    2279
 k-point 44 :   0.2812 0.2188 0.0000  plane waves:    2275
 k-point 45 :   0.3438 0.2188 0.0000  plane waves:    2251
 k-point 46 :   0.4063 0.2188 0.0000  plane waves:    2255
 k-point 47 :   0.4688 0.2188 0.0000  plane waves:    2262
 k-point 48 :  -0.4688 0.2188 0.0000  plane waves:    2262
 k-point 49 :  -0.4062 0.2188 0.0000  plane waves:    2272
 k-point 50 :  -0.3438 0.2188 0.0000  plane waves:    2266
 k-point 51 :  -0.2812 0.2188 0.0000  plane waves:    2276
 k-point 52 :  -0.2188 0.2188 0.0000  plane waves:    2284
 k-point 53 :   0.2812 0.2812 0.0000  plane waves:    2253
 k-point 54 :   0.3438 0.2813 0.0000  plane waves:    2236
 k-point 55 :   0.4062 0.2812 0.0000  plane waves:    2241
 k-point 56 :   0.4688 0.2812 0.0000  plane waves:    2255
 k-point 57 :  -0.4687 0.2812 0.0000  plane waves:    2263
 k-point 58 :  -0.4062 0.2812 0.0000  plane waves:    2262
 k-point 59 :  -0.3438 0.2812 0.0000  plane waves:    2268
 k-point 60 :  -0.2812 0.2812 0.0000  plane waves:    2284
 k-point 61 :   0.3438 0.3438 0.0000  plane waves:    2227
 k-point 62 :   0.4062 0.3438 0.0000  plane waves:    2243
 k-point 63 :   0.4688 0.3438 0.0000  plane waves:    2249
 k-point 64 :  -0.4688 0.3438 0.0000  plane waves:    2248
 k-point 65 :  -0.4062 0.3437 0.0000  plane waves:    2248
 k-point 66 :  -0.3438 0.3438 0.0000  plane waves:    2264
 k-point 67 :   0.4062 0.4062 0.0000  plane waves:    2252
 k-point 68 :   0.4688 0.4062 0.0000  plane waves:    2263
 k-point 69 :  -0.4688 0.4062 0.0000  plane waves:    2263
 k-point 70 :  -0.4062 0.4062 0.0000  plane waves:    2252
 k-point 71 :   0.4688 0.4688 0.0000  plane waves:    2266
 k-point 72 :  -0.4687 0.4687 0.0000  plane waves:    2278

 maximum and minimum number of plane-waves per node :       338      308

 maximum number of plane-waves:      2293
 maximum index in each direction: 
   IXMAX=    5   IYMAX=    4   IZMAX=   28
   IXMIN=   -5   IYMIN=   -5   IZMIN=  -28


 parallel 3D FFT for wavefunctions:
    minimum data exchange during FFTs selected (reduces bandwidth)
 parallel 3D FFT for charge:
    minimum data exchange during FFTs selected (reduces bandwidth)


 total amount of memory used by VASP MPI-rank0    46229. kBytes
=======================================================================

   base      :      30000. kBytes
   nonl-proj :       1577. kBytes
   fftplans  :        727. kBytes
   grid      :       1094. kBytes
   one-center:          3. kBytes
   wavefun   :      12828. kBytes
 
     INWAV:  cpu time    0.0010: real time    0.0001
 Broyden mixing: mesh for mixing (old mesh)
   NGX =  9   NGY =  9   NGZ = 57
  (NGX  = 36   NGY  = 36   NGZ  =240)
  gives a total of   4617 points

 initial charge density was supplied:
 charge density of overlapping atoms calculated
 number of electron       8.0000000 magnetization 
 keeping initial charge density in first step


--------------------------------------------------------------------------------------------------------


 Maximum index for augmentation-charges          301 (set IRDMAX)


--------------------------------------------------------------------------------------------------------


 First call to EWALD:  gamma=   0.404
 Maximum number of real-space cells 5x 5x 1
 Maximum number of reciprocal cells 2x 2x 8

    FEWALD:  cpu time    0.0010: real time    0.0015


--------------------------------------- Iteration      1(   1)  ---------------------------------------


    POTLOK:  cpu time    0.0110: real time    0.0129
    SETDIJ:  cpu time    0.0020: real time    0.0014
     EDDAV:  cpu time    3.4915: real time    3.4949
       DOS:  cpu time    0.0050: real time    0.0051
    --------------------------------------------
      LOOP:  cpu time    3.5095: real time    3.5142

 eigenvalue-minimisations  : 18432
 total energy-change (2. order) : 0.3962053E+02  (-0.1789923E+03)
 number of electron       8.0000000 magnetization 
 augmentation part        8.0000000 magnetization 

 Free energy of the ion-electron system (eV)
  ---------------------------------------------------
  alpha Z        PSCENC =         3.86320986
  Ewald energy   TEWEN  =       848.81615969
  -Hartree energ DENC   =     -1069.14583054
  -exchange      EXHF   =         0.00000000
  -V(xc)+E(xc)   XCENC  =        27.34248546
  PAW double counting   =        75.66288619      -77.96384553
  entropy T*S    EENTRO =        -0.00140785
  eigenvalues    EBANDS =       -63.25091449
  atomic energy  EATOM  =       294.29778662
  Solvation  Ediel_sol  =         0.00000000
  ---------------------------------------------------
  free energy    TOTEN  =        39.62052942 eV

  energy without entropy =       39.62193727  energy(sigma->0) =       39.62123334


--------------------------------------------------------------------------------------------------------




--------------------------------------- Iteration      1(   2)  ---------------------------------------


     EDDAV:  cpu time    3.9824: real time    3.9881
       DOS:  cpu time    0.0050: real time    0.0051
    --------------------------------------------
      LOOP:  cpu time    3.9874: real time    3.9932

 eigenvalue-minimisations  : 22240
 total energy-change (2. order) :-0.5751186E+02  (-0.5428702E+02)
 number of electron       8.0000000 magnetization 
 augmentation part        8.0000000 magnetization 

 Free energy of the ion-electron system (eV)
  ---------------------------------------------------
  alpha Z        PSCENC =         3.86320986
  Ewald energy   TEWEN  =       848.81615969
  -Hartree energ DENC   =     -1069.14583054
  -exchange      EXHF   =         0.00000000
  -V(xc)+E(xc)   XCENC  =        27.34248546
  PAW double counting   =        75.66288619      -77.96384553
  entropy T*S    EENTRO =        -0.00064152
  eigenvalues    EBANDS =      -120.76353594
  atomic energy  EATOM  =       294.29778662
  Solvation  Ediel_sol  =         0.00000000
  ---------------------------------------------------
  free energy    TOTEN  =       -17.89132571 eV

  energy without entropy =      -17.89068418  energy(sigma->0) =      -17.89100494


--------------------------------------------------------------------------------------------------------




--------------------------------------- Iteration      1(   3)  ---------------------------------------


     EDDAV:  cpu time    3.9144: real time    3.9184
       DOS:  cpu time    0.0050: real time    0.0052
    --------------------------------------------
      LOOP:  cpu time    3.9194: real time    3.9236

 eigenvalue-minimisations  : 21664
 total energy-change (2. order) :-0.1605266E+01  (-0.1591881E+01)
 number of electron       8.0000000 magnetization 
 augmentation part        8.0000000 magnetization 

 Free energy of the ion-electron system (eV)
  ---------------------------------------------------
  alpha Z        PSCENC =         3.86320986
  Ewald energy   TEWEN  =       848.81615969
  -Hartree energ DENC   =     -1069.14583054
  -exchange      EXHF   =         0.00000000
  -V(xc)+E(xc)   XCENC  =        27.34248546
  PAW double counting   =        75.66288619      -77.96384553
  entropy T*S    EENTRO =        -0.00070481
  eigenvalues    EBANDS =      -122.36873889
  atomic energy  EATOM  =       294.29778662
  Solvation  Ediel_sol  =         0.00000000
  ---------------------------------------------------
  free energy    TOTEN  =       -19.49659195 eV

  energy without entropy =      -19.49588713  energy(sigma->0) =      -19.49623954


--------------------------------------------------------------------------------------------------------




--------------------------------------- Iteration      1(   4)  ---------------------------------------


     EDDAV:  cpu time    3.8564: real time    3.8589
       DOS:  cpu time    0.0050: real time    0.0051
    --------------------------------------------
      LOOP:  cpu time    3.8614: real time    3.8641

 eigenvalue-minimisations  : 21296
 total energy-change (2. order) :-0.2652531E-02  (-0.2652224E-02)
 number of electron       8.0000000 magnetization 
 augmentation part        8.0000000 magnetization 

 Free energy of the ion-electron system (eV)
  ---------------------------------------------------
  alpha Z        PSCENC =         3.86320986
  Ewald energy   TEWEN  =       848.81615969
  -Hartree energ DENC   =     -1069.14583054
  -exchange      EXHF   =         0.00000000
  -V(xc)+E(xc)   XCENC  =        27.34248546
  PAW double counting   =        75.66288619      -77.96384553
  entropy T*S    EENTRO =        -0.00070467
  eigenvalues    EBANDS =      -122.37139157
  atomic energy  EATOM  =       294.29778662
  Solvation  Ediel_sol  =         0.00000000
  ---------------------------------------------------
  free energy    TOTEN  =       -19.49924448 eV

  energy without entropy =      -19.49853981  energy(sigma->0) =      -19.49889214


--------------------------------------------------------------------------------------------------------




--------------------------------------- Iteration      1(   5)  ---------------------------------------


     EDDAV:  cpu time    3.8294: real time    3.8325
       DOS:  cpu time    0.0050: real time    0.0053
    CHARGE:  cpu time    0.0130: real time    0.0124
    MIXING:  cpu time    0.0010: real time    0.0008
    --------------------------------------------
      LOOP:  cpu time    3.8484: real time    3.8510

 eigenvalue-minimisations  : 21056
 total energy-change (2. order) :-0.5603382E-05  (-0.5602918E-05)
 number of electron       7.9999998 magnetization 
 augmentation part        0.2051717 magnetization 

 Broyden mixing:
  rms(total) = 0.52061E+00    rms(broyden)= 0.52051E+00
  rms(prec ) = 0.59564E+00
  weight for this iteration     100.00

 Free energy of the ion-electron system (eV)
  ---------------------------------------------------
  alpha Z        PSCENC =         3.86320986
  Ewald energy   TEWEN  =       848.81615969
  -Hartree energ DENC   =     -1069.14583054
  -exchange      EXHF   =         0.00000000
  -V(xc)+E(xc)   XCENC  =        27.34248546
  PAW double counting   =        75.66288619      -77.96384553
  entropy T*S    EENTRO =        -0.00070467
  eigenvalues    EBANDS =      -122.37139717
  atomic energy  EATOM  =       294.29778662
  Solvation  Ediel_sol  =         0.00000000
  ---------------------------------------------------
  free energy    TOTEN  =       -19.49925008 eV

  energy without entropy =      -19.49854542  energy(sigma->0) =      -19.49889775


--------------------------------------------------------------------------------------------------------




--------------------------------------- Iteration      1(   6)  ---------------------------------------


    POTLOK:  cpu time    0.0080: real time    0.0082
    SETDIJ:  cpu time    0.0010: real time    0.0013
     EDDAV:  cpu time    3.9974: real time    4.0008
       DOS:  cpu time    0.0050: real time    0.0053
    CHARGE:  cpu time    0.0120: real time    0.0122
    MIXING:  cpu time    0.0010: real time    0.0005
    --------------------------------------------
      LOOP:  cpu time    4.0244: real time    4.0282

 eigenvalue-minimisations  : 22232
 total energy-change (2. order) : 0.7965048E+00  (-0.1737922E-01)
 number of electron       7.9999998 magnetization 
 augmentation part        0.1963090 magnetization 

 Broyden mixing:
  rms(total) = 0.27660E+00    rms(broyden)= 0.27659E+00
  rms(prec ) = 0.31795E+00
  weight for this iteration     100.00

 eigenvalues of (default mixing * dielectric matrix)
  average eigenvalue GAMMA=   2.0650
  2.0650

 Free energy of the ion-electron system (eV)
  ---------------------------------------------------
  alpha Z        PSCENC =         3.86320986
  Ewald energy   TEWEN  =       848.81615969
  -Hartree energ DENC   =     -1079.39423705
  -exchange      EXHF   =         0.00000000
  -V(xc)+E(xc)   XCENC  =        27.81241184
  PAW double counting   =       100.44178384     -102.91259283
  entropy T*S    EENTRO =        -0.00058980
  eigenvalues    EBANDS =      -111.62667747
  atomic energy  EATOM  =       294.29778662
  Solvation  Ediel_sol  =         0.00000000
  ---------------------------------------------------
  free energy    TOTEN  =       -18.70274529 eV

  energy without entropy =      -18.70215550  energy(sigma->0) =      -18.70245039


--------------------------------------------------------------------------------------------------------




--------------------------------------- Iteration      1(   7)  ---------------------------------------


    POTLOK:  cpu time    0.0080: real time    0.0090
    SETDIJ:  cpu time    0.0010: real time    0.0013
     EDDAV:  cpu time    3.8364: real time    3.8398
       DOS:  cpu time    0.0050: real time    0.0051
    CHARGE:  cpu time    0.0120: real time    0.0122
    MIXING:  cpu time    0.0010: real time    0.0004
    --------------------------------------------
      LOOP:  cpu time    3.8634: real time    3.8677

 eigenvalue-minimisations  : 21184
 total energy-change (2. order) : 0.3034476E+00  (-0.2552622E-01)
 number of electron       7.9999998 magnetization 
 augmentation part        0.1860943 magnetization 

 Broyden mixing:
  rms(total) = 0.48073E-01    rms(broyden)= 0.48003E-01
  rms(prec ) = 0.58025E-01
  weight for this iteration     100.00

 eigenvalues of (default mixing * dielectric matrix)
  average eigenvalue GAMMA=   2.2629
  2.2629  2.2629

 Free energy of the ion-electron system (eV)
  ---------------------------------------------------
  alpha Z        PSCENC =         3.86320986
  Ewald energy   TEWEN  =       848.81615969
  -Hartree energ DENC   =     -1092.39785190
  -exchange      EXHF   =         0.00000000
  -V(xc)+E(xc)   XCENC  =        28.39654594
  PAW double counting   =       131.83187720     -134.45135677
  entropy T*S    EENTRO =        -0.00047016
  eigenvalues    EBANDS =       -98.75519812
  atomic energy  EATOM  =       294.29778662
  Solvation  Ediel_sol  =         0.00000000
  ---------------------------------------------------
  free energy    TOTEN  =       -18.39929765 eV

  energy without entropy =      -18.39882749  energy(sigma->0) =      -18.39906257


--------------------------------------------------------------------------------------------------------




--------------------------------------- Iteration      1(   8)  ---------------------------------------


    POTLOK:  cpu time    0.0080: real time    0.0085
    SETDIJ:  cpu time    0.0020: real time    0.0013
     EDDAV:  cpu time    3.9094: real time    3.9126
       DOS:  cpu time    0.0050: real time    0.0052
    CHARGE:  cpu time    0.0120: real time    0.0122
    MIXING:  cpu time    0.0010: real time    0.0004
    --------------------------------------------
      LOOP:  cpu time    3.9374: real time    3.9400

 eigenvalue-minimisations  : 21704
 total energy-change (2. order) : 0.7410940E-02  (-0.6874787E-03)
 number of electron       7.9999998 magnetization 
 augmentation part        0.1857099 magnetization 

 Broyden mixing:
  rms(total) = 0.92274E-02    rms(broyden)= 0.92079E-02
  rms(prec ) = 0.19916E-01
  weight for this iteration     100.00

 eigenvalues of (default mixing * dielectric matrix)
  average eigenvalue GAMMA=   1.9646
  1.1172  2.0081  2.7686

 Free energy of the ion-electron system (eV)
  ---------------------------------------------------
  alpha Z        PSCENC =         3.86320986
  Ewald energy   TEWEN  =       848.81615969
  -Hartree energ DENC   =     -1094.86736317
  -exchange      EXHF   =         0.00000000
  -V(xc)+E(xc)   XCENC  =        28.42337725
  PAW double counting   =       132.55321031     -135.11398503
  entropy T*S    EENTRO =        -0.00048723
  eigenvalues    EBANDS =       -96.36379502
  atomic energy  EATOM  =       294.29778662
  Solvation  Ediel_sol  =         0.00000000
  ---------------------------------------------------
  free energy    TOTEN  =       -18.39188671 eV

  energy without entropy =      -18.39139949  energy(sigma->0) =      -18.39164310


--------------------------------------------------------------------------------------------------------




--------------------------------------- Iteration      1(   9)  ---------------------------------------


    POTLOK:  cpu time    0.0080: real time    0.0104
    SETDIJ:  cpu time    0.0020: real time    0.0013
     EDDAV:  cpu time    3.9144: real time    3.9178
       DOS:  cpu time    0.0050: real time    0.0051
    CHARGE:  cpu time    0.0120: real time    0.0121
    MIXING:  cpu time    0.0000: real time    0.0004
    --------------------------------------------
      LOOP:  cpu time    3.9424: real time    3.9471

 eigenvalue-minimisations  : 21744
 total energy-change (2. order) : 0.2121866E-02  (-0.6975372E-04)
 number of electron       7.9999998 magnetization 
 augmentation part        0.1852987 magnetization 

 Broyden mixing:
  rms(total) = 0.59995E-02    rms(broyden)= 0.59956E-02
  rms(prec ) = 0.13701E-01
  weight for this iteration     100.00

 eigenvalues of (default mixing * dielectric matrix)
  average eigenvalue GAMMA=   2.1478
  1.0658  2.8029  2.8029  1.9196

 Free energy of the ion-electron system (eV)
  ---------------------------------------------------
  alpha Z        PSCENC =         3.86320986
  Ewald energy   TEWEN  =       848.81615969
  -Hartree energ DENC   =     -1096.39107850
  -exchange      EXHF   =         0.00000000
  -V(xc)+E(xc)   XCENC  =        28.45862016
  PAW double counting   =       133.55857937     -136.11772280
  entropy T*S    EENTRO =        -0.00048143
  eigenvalues    EBANDS =       -94.87483781
  atomic energy  EATOM  =       294.29778662
  Solvation  Ediel_sol  =         0.00000000
  ---------------------------------------------------
  free energy    TOTEN  =       -18.38976485 eV

  energy without entropy =      -18.38928341  energy(sigma->0) =      -18.38952413


--------------------------------------------------------------------------------------------------------




--------------------------------------- Iteration      1(  10)  ---------------------------------------


    POTLOK:  cpu time    0.0090: real time    0.0113
    SETDIJ:  cpu time    0.0020: real time    0.0013
     EDDAV:  cpu time    3.8574: real time    3.8603
       DOS:  cpu time    0.0040: real time    0.0049
    CHARGE:  cpu time    0.0130: real time    0.0122
    MIXING:  cpu time    0.0000: real time    0.0004
    --------------------------------------------
      LOOP:  cpu time    3.8844: real time    3.8903

 eigenvalue-minimisations  : 21368
 total energy-change (2. order) : 0.1868642E-03  (-0.2957056E-04)
 number of electron       7.9999998 magnetization 
 augmentation part        0.1851303 magnetization 

 Broyden mixing:
  rms(total) = 0.29300E-02    rms(broyden)= 0.29281E-02
  rms(prec ) = 0.59413E-02
  weight for this iteration     100.00

 eigenvalues of (default mixing * dielectric matrix)
  average eigenvalue GAMMA=   2.2379
  4.2711  2.5819  0.9843  1.9314  1.4206

 Free energy of the ion-electron system (eV)
  ---------------------------------------------------
  alpha Z        PSCENC =         3.86320986
  Ewald energy   TEWEN  =       848.81615969
  -Hartree energ DENC   =     -1098.42077843
  -exchange      EXHF   =         0.00000000
  -V(xc)+E(xc)   XCENC  =        28.47545039
  PAW double counting   =       132.44476530     -135.00441244
  entropy T*S    EENTRO =        -0.00047601
  eigenvalues    EBANDS =       -92.86128296
  atomic energy  EATOM  =       294.29778662
  Solvation  Ediel_sol  =         0.00000000
  ---------------------------------------------------
  free energy    TOTEN  =       -18.38957798 eV

  energy without entropy =      -18.38910197  energy(sigma->0) =      -18.38933998


--------------------------------------------------------------------------------------------------------




--------------------------------------- Iteration      1(  11)  ---------------------------------------


    POTLOK:  cpu time    0.0090: real time    0.0087
    SETDIJ:  cpu time    0.0010: real time    0.0013
     EDDAV:  cpu time    3.8634: real time    3.8661
       DOS:  cpu time    0.0050: real time    0.0050
    CHARGE:  cpu time    0.0120: real time    0.0122
    MIXING:  cpu time    0.0010: real time    0.0004
    --------------------------------------------
      LOOP:  cpu time    3.8914: real time    3.8936

 eigenvalue-minimisations  : 21432
 total energy-change (2. order) : 0.4181198E-03  (-0.3917453E-05)
 number of electron       7.9999998 magnetization 
 augmentation part        0.1850713 magnetization 

 Broyden mixing:
  rms(total) = 0.17784E-02    rms(broyden)= 0.17780E-02
  rms(prec ) = 0.37783E-02
  weight for this iteration     100.00

 eigenvalues of (default mixing * dielectric matrix)
  average eigenvalue GAMMA=   2.5299
  5.7280  2.9325  2.5364  1.9672  1.0510  0.9645

 Free energy of the ion-electron system (eV)
  ---------------------------------------------------
  alpha Z        PSCENC =         3.86320986
  Ewald energy   TEWEN  =       848.81615969
  -Hartree energ DENC   =     -1099.20414613
  -exchange      EXHF   =         0.00000000
  -V(xc)+E(xc)   XCENC  =        28.48304522
  PAW double counting   =       132.64521255     -135.20259991
  entropy T*S    EENTRO =        -0.00047785
  eigenvalues    EBANDS =       -92.08734992
  atomic energy  EATOM  =       294.29778662
  Solvation  Ediel_sol  =         0.00000000
  ---------------------------------------------------
  free energy    TOTEN  =       -18.38915986 eV

  energy without entropy =      -18.38868201  energy(sigma->0) =      -18.38892093


--------------------------------------------------------------------------------------------------------




--------------------------------------- Iteration      1(  12)  ---------------------------------------


    POTLOK:  cpu time    0.0080: real time    0.0081
    SETDIJ:  cpu time    0.0010: real time    0.0013
     EDDAV:  cpu time    3.7114: real time    3.7144
       DOS:  cpu time    0.0040: real time    0.0051
    CHARGE:  cpu time    0.0130: real time    0.0122
    MIXING:  cpu time    0.0010: real time    0.0005
    --------------------------------------------
      LOOP:  cpu time    3.7384: real time    3.7416

 eigenvalue-minimisations  : 20280
 total energy-change (2. order) :-0.7397402E-03  (-0.4568320E-05)
 number of electron       7.9999998 magnetization 
 augmentation part        0.1850265 magnetization 

 Broyden mixing:
  rms(total) = 0.10355E-02    rms(broyden)= 0.10354E-02
  rms(prec ) = 0.19369E-02
  weight for this iteration     100.00

 eigenvalues of (default mixing * dielectric matrix)
  average eigenvalue GAMMA=   2.5208
  6.0345  3.3663  2.6291  1.9892  1.0029  0.9565  1.6672

 Free energy of the ion-electron system (eV)
  ---------------------------------------------------
  alpha Z        PSCENC =         3.86320986
  Ewald energy   TEWEN  =       848.81615969
  -Hartree energ DENC   =     -1099.65780294
  -exchange      EXHF   =         0.00000000
  -V(xc)+E(xc)   XCENC  =        28.48224447
  PAW double counting   =       132.80506477     -135.36496732
  entropy T*S    EENTRO =        -0.00047969
  eigenvalues    EBANDS =       -91.63111508
  atomic energy  EATOM  =       294.29778662
  Solvation  Ediel_sol  =         0.00000000
  ---------------------------------------------------
  free energy    TOTEN  =       -18.38989960 eV

  energy without entropy =      -18.38941991  energy(sigma->0) =      -18.38965976


--------------------------------------------------------------------------------------------------------




--------------------------------------- Iteration      1(  13)  ---------------------------------------


    POTLOK:  cpu time    0.0080: real time    0.0080
    SETDIJ:  cpu time    0.0010: real time    0.0013
     EDDAV:  cpu time    3.7614: real time    3.7646
       DOS:  cpu time    0.0050: real time    0.0052
    CHARGE:  cpu time    0.0120: real time    0.0122
    MIXING:  cpu time    0.0010: real time    0.0005
    --------------------------------------------
      LOOP:  cpu time    3.7884: real time    3.7917

 eigenvalue-minimisations  : 20640
 total energy-change (2. order) :-0.5404595E-03  (-0.2944201E-05)
 number of electron       7.9999998 magnetization 
 augmentation part        0.1850643 magnetization 

 Broyden mixing:
  rms(total) = 0.49877E-03    rms(broyden)= 0.49874E-03
  rms(prec ) = 0.98192E-03
  weight for this iteration     100.00

 eigenvalues of (default mixing * dielectric matrix)
  average eigenvalue GAMMA=   2.6003
  6.5294  4.2197  2.7191  2.3377  1.9786  1.0370  1.0370  0.9441

 Free energy of the ion-electron system (eV)
  ---------------------------------------------------
  alpha Z        PSCENC =         3.86320986
  Ewald energy   TEWEN  =       848.81615969
  -Hartree energ DENC   =     -1099.62007603
  -exchange      EXHF   =         0.00000000
  -V(xc)+E(xc)   XCENC  =        28.47856154
  PAW double counting   =       132.80789176     -135.36672822
  entropy T*S    EENTRO =        -0.00047855
  eigenvalues    EBANDS =       -91.66676672
  atomic energy  EATOM  =       294.29778662
  Solvation  Ediel_sol  =         0.00000000
  ---------------------------------------------------
  free energy    TOTEN  =       -18.39044006 eV

  energy without entropy =      -18.38996151  energy(sigma->0) =      -18.39020079


--------------------------------------------------------------------------------------------------------




--------------------------------------- Iteration      1(  14)  ---------------------------------------


    POTLOK:  cpu time    0.0080: real time    0.0079
    SETDIJ:  cpu time    0.0010: real time    0.0013
     EDDAV:  cpu time    3.8134: real time    3.8163
       DOS:  cpu time    0.0050: real time    0.0051
    CHARGE:  cpu time    0.0120: real time    0.0122
    MIXING:  cpu time    0.0010: real time    0.0005
    --------------------------------------------
      LOOP:  cpu time    3.8404: real time    3.8433

 eigenvalue-minimisations  : 21064
 total energy-change (2. order) :-0.6256645E-04  (-0.3130487E-06)
 number of electron       7.9999998 magnetization 
 augmentation part        0.1850543 magnetization 

 Broyden mixing:
  rms(total) = 0.34266E-03    rms(broyden)= 0.34265E-03
  rms(prec ) = 0.55843E-03
  weight for this iteration     100.00

 eigenvalues of (default mixing * dielectric matrix)
  average eigenvalue GAMMA=   2.8561
  7.7391  5.0813  3.1314  2.6280  1.9930  2.1528  1.0061  1.0061  0.9672

 Free energy of the ion-electron system (eV)
  ---------------------------------------------------
  alpha Z        PSCENC =         3.86320986
  Ewald energy   TEWEN  =       848.81615969
  -Hartree energ DENC   =     -1099.76166341
  -exchange      EXHF   =         0.00000000
  -V(xc)+E(xc)   XCENC  =        28.48001606
  PAW double counting   =       132.75298173     -135.31157309
  entropy T*S    EENTRO =        -0.00047786
  eigenvalues    EBANDS =       -91.52694223
  atomic energy  EATOM  =       294.29778662
  Solvation  Ediel_sol  =         0.00000000
  ---------------------------------------------------
  free energy    TOTEN  =       -18.39050263 eV

  energy without entropy =      -18.39002477  energy(sigma->0) =      -18.39026370


--------------------------------------------------------------------------------------------------------




--------------------------------------- Iteration      1(  15)  ---------------------------------------


    POTLOK:  cpu time    0.0080: real time    0.0089
    SETDIJ:  cpu time    0.0020: real time    0.0013
     EDDAV:  cpu time    3.8264: real time    3.8302
       DOS:  cpu time    0.0060: real time    0.0050
    CHARGE:  cpu time    0.0110: real time    0.0122
    MIXING:  cpu time    0.0010: real time    0.0006
    --------------------------------------------
      LOOP:  cpu time    3.8544: real time    3.8581

 eigenvalue-minimisations  : 21184
 total energy-change (2. order) :-0.8728377E-04  (-0.2969940E-06)
 number of electron       7.9999998 magnetization 
 augmentation part        0.1850428 magnetization 

 Broyden mixing:
  rms(total) = 0.11422E-03    rms(broyden)= 0.11418E-03
  rms(prec ) = 0.15680E-03
  weight for this iteration     100.00

 eigenvalues of (default mixing * dielectric matrix)
  average eigenvalue GAMMA=   3.0011
  8.4890  6.0884  3.2304  2.6823  2.5593  2.0846  1.8840  1.0100  1.0100  0.9730

 Free energy of the ion-electron system (eV)
  ---------------------------------------------------
  alpha Z        PSCENC =         3.86320986
  Ewald energy   TEWEN  =       848.81615969
  -Hartree energ DENC   =     -1099.83474185
  -exchange      EXHF   =         0.00000000
  -V(xc)+E(xc)   XCENC  =        28.48080575
  PAW double counting   =       132.73504829     -135.29388986
  entropy T*S    EENTRO =        -0.00047881
  eigenvalues    EBANDS =       -91.45448960
  atomic energy  EATOM  =       294.29778662
  Solvation  Ediel_sol  =         0.00000000
  ---------------------------------------------------
  free energy    TOTEN  =       -18.39058991 eV

  energy without entropy =      -18.39011110  energy(sigma->0) =      -18.39035051


--------------------------------------------------------------------------------------------------------




--------------------------------------- Iteration      1(  16)  ---------------------------------------


    POTLOK:  cpu time    0.0080: real time    0.0080
    SETDIJ:  cpu time    0.0020: real time    0.0013
     EDDAV:  cpu time    3.8804: real time    3.8837
       DOS:  cpu time    0.0050: real time    0.0052
    CHARGE:  cpu time    0.0120: real time    0.0122
    MIXING:  cpu time    0.0010: real time    0.0006
    --------------------------------------------
      LOOP:  cpu time    3.9084: real time    3.9109

 eigenvalue-minimisations  : 21544
 total energy-change (2. order) :-0.1240820E-04  (-0.8109265E-08)
 number of electron       7.9999998 magnetization 
 augmentation part        0.1850459 magnetization 

 Broyden mixing:
  rms(total) = 0.45620E-04    rms(broyden)= 0.45620E-04
  rms(prec ) = 0.68528E-04
  weight for this iteration     100.00

 eigenvalues of (default mixing * dielectric matrix)
  average eigenvalue GAMMA=   2.9586
  9.3691  6.0478  3.8633  2.7734  2.5093  2.0064  2.0064  1.0257  1.0257  0.9709
  0.9468

 Free energy of the ion-electron system (eV)
  ---------------------------------------------------
  alpha Z        PSCENC =         3.86320986
  Ewald energy   TEWEN  =       848.81615969
  -Hartree energ DENC   =     -1099.81845591
  -exchange      EXHF   =         0.00000000
  -V(xc)+E(xc)   XCENC  =        28.48041152
  PAW double counting   =       132.74525701     -135.30411308
  entropy T*S    EENTRO =        -0.00047861
  eigenvalues    EBANDS =       -91.47037942
  atomic energy  EATOM  =       294.29778662
  Solvation  Ediel_sol  =         0.00000000
  ---------------------------------------------------
  free energy    TOTEN  =       -18.39060232 eV

  energy without entropy =      -18.39012371  energy(sigma->0) =      -18.39036302


--------------------------------------------------------------------------------------------------------




--------------------------------------- Iteration      1(  17)  ---------------------------------------


    POTLOK:  cpu time    0.0080: real time    0.0081
    SETDIJ:  cpu time    0.0010: real time    0.0013
     EDDAV:  cpu time    3.8774: real time    3.8801
       DOS:  cpu time    0.0050: real time    0.0052
    CHARGE:  cpu time    0.0120: real time    0.0122
    MIXING:  cpu time    0.0010: real time    0.0006
    --------------------------------------------
      LOOP:  cpu time    3.9044: real time    3.9074

 eigenvalue-minimisations  : 21288
 total energy-change (2. order) :-0.2957524E-05  (-0.1047314E-08)
 number of electron       7.9999998 magnetization 
 augmentation part        0.1850434 magnetization 

 Broyden mixing:
  rms(total) = 0.18225E-04    rms(broyden)= 0.18216E-04
  rms(prec ) = 0.21677E-04
  weight for this iteration     100.00

 eigenvalues of (default mixing * dielectric matrix)
  average eigenvalue GAMMA=   3.0002
  9.6364  6.1161  4.0423  3.0739  2.6681  2.4616  1.9976  1.9976  0.9728  1.0002
  1.0175  1.0175

 Free energy of the ion-electron system (eV)
  ---------------------------------------------------
  alpha Z        PSCENC =         3.86320986
  Ewald energy   TEWEN  =       848.81615969
  -Hartree energ DENC   =     -1099.83102757
  -exchange      EXHF   =         0.00000000
  -V(xc)+E(xc)   XCENC  =        28.48060875
  PAW double counting   =       132.74818936     -135.30708110
  entropy T*S    EENTRO =        -0.00047853
  eigenvalues    EBANDS =       -91.45797236
  atomic energy  EATOM  =       294.29778662
  Solvation  Ediel_sol  =         0.00000000
  ---------------------------------------------------
  free energy    TOTEN  =       -18.39060528 eV

  energy without entropy =      -18.39012675  energy(sigma->0) =      -18.39036601


--------------------------------------------------------------------------------------------------------




--------------------------------------- Iteration      1(  18)  ---------------------------------------


    POTLOK:  cpu time    0.0080: real time    0.0113
    SETDIJ:  cpu time    0.0020: real time    0.0013
     EDDAV:  cpu time    3.7554: real time    3.7588
       DOS:  cpu time    0.0050: real time    0.0052
    --------------------------------------------
      LOOP:  cpu time    3.7704: real time    3.7765

 eigenvalue-minimisations  : 20528
 total energy-change (2. order) :-0.6945249E-06  (-0.7752427E-09)
 number of electron       7.9999998 magnetization 
 augmentation part        0.1850434 magnetization 

 Free energy of the ion-electron system (eV)
  ---------------------------------------------------
  alpha Z        PSCENC =         3.86320986
  Ewald energy   TEWEN  =       848.81615969
  -Hartree energ DENC   =     -1099.83013290
  -exchange      EXHF   =         0.00000000
  -V(xc)+E(xc)   XCENC  =        28.48058035
  PAW double counting   =       132.74849013     -135.30736219
  entropy T*S    EENTRO =        -0.00047855
  eigenvalues    EBANDS =       -91.45885899
  atomic energy  EATOM  =       294.29778662
  Solvation  Ediel_sol  =         0.00000000
  ---------------------------------------------------
  free energy    TOTEN  =       -18.39060597 eV

  energy without entropy =      -18.39012742  energy(sigma->0) =      -18.39036670


--------------------------------------------------------------------------------------------------------




 average (electrostatic) potential at core
  the test charge radii are     0.6991
  (the norm of the test charge is              1.0000)
       1 -57.9851       2 -57.9851
 
 
 
 E-fermi :  -2.4698     XC(G=0):  -2.7465     alpha+bet : -2.3799


 k-point     1 :       0.0312    0.0312    0.0000
  band No.  band energies     occupation 
      1     -21.5503      2.00000
      2      -9.7019      2.00000
      3      -5.8291      2.00000
      4      -5.6329      2.00000
      5       1.0147      0.00000
      6       1.8898      0.00000
      7       2.4124      0.00000
      8       4.1382      0.00000
      9       4.8578      0.00000
     10       5.3083      0.00000
     11       6.0645      0.00000
     12       7.7661      0.00000
     13       8.1440      0.00000
     14       8.8133      0.00000
     15       9.1852      0.00000
     16      12.7164      0.00000
     17      14.1420      0.00000
     18      18.8166      0.00000
     19      19.6282      0.00000
     20      20.8080      0.00000
     21      23.9779      0.00000
     22      24.3763      0.00000
     23      25.8503      0.00000
     24      28.1520      0.00000
     25      28.7369      0.00000
     26      29.1464      0.00000
     27      29.4978      0.00000
     28      29.5199      0.00000
     29      30.6934      0.00000
     30      30.9034      0.00000
     31      30.9524      0.00000
     32      31.0116      0.00000
     33      31.2075      0.00000
     34      32.7957      0.00000
     35      32.9722      0.00000
     36      33.0639      0.00000
     37      33.3108      0.00000
     38      33.5717      0.00000
     39      33.6650      0.00000
     40      34.7889      0.00000
     41      34.8807      0.00000
     42      34.9784      0.00000
     43      35.0234      0.00000
     44      35.2483      0.00000
     45      35.4357      0.00000
     46      35.9535      0.00000
     47      36.0157      0.00000
     48      36.6593      0.00000
     49      36.6611      0.00000
     50      36.7030      0.00000
     51      36.9143      0.00000
     52      36.9597      0.00000
     53      36.9704      0.00000
     54      37.3104      0.00000
     55      37.5270      0.00000
     56      37.5862      0.00000
     57      37.7636      0.00000
     58      37.9320      0.00000
     59      38.0818      0.00000
     60      38.6745      0.00000
     61      38.8720      0.00000
     62      39.0729      0.00000
     63      39.3102      0.00000
     64      40.5210      0.00000
     65      40.9756      0.00000
     66      41.1970      0.00000
     67      41.3855      0.00000
     68      41.6000      0.00000
     69      42.1257      0.00000
     70      42.1443      0.00000
     71      42.5101      0.00000
     72      42.6412      0.00000
     73      42.7425      0.00000
     74      43.1601      0.00000
     75      43.3341      0.00000
     76      45.3318      0.00000
     77      45.3936      0.00000
     78      45.7411      0.00000
     79      45.7824      0.00000
     80      46.5538      0.00000
     81      47.1340      0.00000
     82      47.7048      0.00000
     83      47.8288      0.00000
     84      48.2880      0.00000
     85      48.4375      0.00000
     86      48.5240      0.00000
     87      48.8700      0.00000
     88      49.3491      0.00000
     89      49.6758      0.00000
     90      49.9827      0.00000
     91      50.2777      0.00000
     92      52.2898      0.00000
     93      53.1764      0.00000
     94      53.1865      0.00000
     95      54.1166      0.00000
     96      54.5050      0.00000
     97      54.7629      0.00000
     98      54.8925      0.00000
     99      55.8819      0.00000
    100      56.1432      0.00000
    101      56.6656      0.00000
    102      57.1316      0.00000
    103      57.5944      0.00000
    104      58.8259      0.00000
    105      59.9095      0.00000
    106      60.1466      0.00000
    107      61.1178      0.00000
    108      61.4550      0.00000
    109      61.8085      0.00000
    110      62.4543      0.00000
    111      62.6228      0.00000
    112      63.1781      0.00000
    113      63.7508      0.00000
    114      65.1175      0.00000
    115      65.3301      0.00000
    116      66.0060      0.00000
    117      66.0097      0.00000
    118      67.0548      0.00000
    119      69.0325      0.00000
    120      69.0732      0.00000
    121      69.3002      0.00000
    122      70.0127      0.00000
    123      71.2110      0.00000
    124      71.2181      0.00000
    125      71.6828      0.00000
    126      71.7861      0.00000
    127      71.9867      0.00000
    128      73.3279      0.00000

 k-point     2 :       0.0938    0.0312    0.0000
  band No.  band energies     occupation 
      1     -21.3317      2.00000
      2      -9.4447      2.00000
      3      -6.6534      2.00000
      4      -6.0770      2.00000
      5       1.3109      0.00000
      6       2.1883      0.00000
      7       2.7145      0.00000
      8       4.4349      0.00000
      9       5.1397      0.00000
     10       5.5605      0.00000
     11       6.9345      0.00000
     12       7.4265      0.00000
     13       8.0549      0.00000
     14       9.1111      0.00000
     15       9.5241      0.00000
     16      12.9789      0.00000
     17      14.4341      0.00000
     18      18.9099      0.00000
     19      20.1589      0.00000
     20      21.1159      0.00000
     21      22.0576      0.00000
     22      23.5190      0.00000
     23      25.9206      0.00000
     24      26.0409      0.00000
     25      27.3227      0.00000
     26      27.3299      0.00000
     27      27.8799      0.00000
     28      28.2638      0.00000
     29      29.0174      0.00000
     30      29.3619      0.00000
     31      29.4219      0.00000
     32      29.7158      0.00000
     33      29.7537      0.00000
     34      31.1213      0.00000
     35      31.4422      0.00000
     36      31.7155      0.00000
     37      32.1633      0.00000
     38      33.1938      0.00000
     39      33.4352      0.00000
     40      33.4424      0.00000
     41      33.5640      0.00000
     42      33.8048      0.00000
     43      35.3210      0.00000
     44      35.3278      0.00000
     45      35.7287      0.00000
     46      35.7630      0.00000
     47      35.9729      0.00000
     48      36.7164      0.00000
     49      36.9083      0.00000
     50      37.5669      0.00000
     51      37.7411      0.00000
     52      37.9694      0.00000
     53      38.2119      0.00000
     54      38.6172      0.00000
     55      38.7896      0.00000
     56      38.8883      0.00000
     57      38.9815      0.00000
     58      39.4716      0.00000
     59      39.6542      0.00000
     60      39.8638      0.00000
     61      39.9251      0.00000
     62      40.5942      0.00000
     63      40.6980      0.00000
     64      40.9178      0.00000
     65      40.9374      0.00000
     66      41.2571      0.00000
     67      41.2945      0.00000
     68      42.5013      0.00000
     69      42.8827      0.00000
     70      43.1581      0.00000
     71      43.5720      0.00000
     72      43.7008      0.00000
     73      44.1827      0.00000
     74      44.6214      0.00000
     75      44.9211      0.00000
     76      45.3209      0.00000
     77      45.4242      0.00000
     78      45.6972      0.00000
     79      46.3130      0.00000
     80      46.9398      0.00000
     81      47.3671      0.00000
     82      47.7139      0.00000
     83      47.7943      0.00000
     84      47.8621      0.00000
     85      48.9490      0.00000
     86      49.2816      0.00000
     87      49.8512      0.00000
     88      49.9722      0.00000
     89      50.6840      0.00000
     90      51.3963      0.00000
     91      52.1268      0.00000
     92      52.3637      0.00000
     93      52.8793      0.00000
     94      52.9077      0.00000
     95      53.9093      0.00000
     96      54.7441      0.00000
     97      55.3801      0.00000
     98      55.3970      0.00000
     99      56.3325      0.00000
    100      56.7067      0.00000
    101      57.2632      0.00000
    102      57.8099      0.00000
    103      59.3787      0.00000
    104      59.4072      0.00000
    105      59.6517      0.00000
    106      59.7422      0.00000
    107      60.4150      0.00000
    108      61.9290      0.00000
    109      62.6667      0.00000
    110      63.3048      0.00000
    111      63.5275      0.00000
    112      63.7086      0.00000
    113      64.3351      0.00000
    114      64.7054      0.00000
    115      64.7297      0.00000
    116      65.6403      0.00000
    117      66.6588      0.00000
    118      67.3270      0.00000
    119      68.2030      0.00000
    120      68.7979      0.00000
    121      69.6384      0.00000
    122      70.0559      0.00000
    123      72.1717      0.00000
    124      72.2789      0.00000
    125      72.8968      0.00000
    126      73.0906      0.00000
    127      73.4683      0.00000
    128      73.9460      0.00000

 k-point     3 :       0.1562    0.0312    0.0000
  band No.  band energies     occupation 
      1     -20.9381      2.00000
      2      -8.9840      2.00000
      3      -7.9446      2.00000
      4      -6.6709      2.00000
      5       1.8463      0.00000
      6       2.7261      0.00000
      7       3.2608      0.00000
      8       4.9670      0.00000
      9       5.5584      0.00000
     10       5.8071      0.00000
     11       6.2703      0.00000
     12       8.2779      0.00000
     13       8.5731      0.00000
     14       9.6426      0.00000
     15      10.2970      0.00000
     16      13.4350      0.00000
     17      14.9568      0.00000
     18      18.6126      0.00000
     19      20.6597      0.00000
     20      20.7668      0.00000
     21      21.6732      0.00000
     22      22.2973      0.00000
     23      22.9862      0.00000
     24      24.0518      0.00000
     25      24.0692      0.00000
     26      25.9229      0.00000
     27      26.3419      0.00000
     28      26.7485      0.00000
     29      27.1235      0.00000
     30      27.6316      0.00000
     31      28.0520      0.00000
     32      29.0040      0.00000
     33      29.5187      0.00000
     34      30.0534      0.00000
     35      30.2539      0.00000
     36      30.3296      0.00000
     37      30.6998      0.00000
     38      30.9336      0.00000
     39      31.9505      0.00000
     40      32.0299      0.00000
     41      33.3976      0.00000
     42      33.9611      0.00000
     43      33.9648      0.00000
     44      34.5540      0.00000
     45      34.6643      0.00000
     46      35.1208      0.00000
     47      35.4673      0.00000
     48      36.2533      0.00000
     49      37.8258      0.00000
     50      38.0386      0.00000
     51      38.1549      0.00000
     52      38.2777      0.00000
     53      38.7096      0.00000
     54      39.1674      0.00000
     55      39.3377      0.00000
     56      39.6989      0.00000
     57      40.1669      0.00000
     58      40.3212      0.00000
     59      40.9073      0.00000
     60      41.2005      0.00000
     61      41.3533      0.00000
     62      41.6325      0.00000
     63      41.9106      0.00000
     64      42.3734      0.00000
     65      42.4921      0.00000
     66      43.0498      0.00000
     67      43.1377      0.00000
     68      43.4269      0.00000
     69      43.6838      0.00000
     70      44.7487      0.00000
     71      44.9745      0.00000
     72      45.0238      0.00000
     73      45.6119      0.00000
     74      45.6797      0.00000
     75      45.9706      0.00000
     76      46.2268      0.00000
     77      46.9468      0.00000
     78      47.1565      0.00000
     79      47.4389      0.00000
     80      47.9878      0.00000
     81      48.3510      0.00000
     82      48.4298      0.00000
     83      49.0258      0.00000
     84      49.3446      0.00000
     85      50.0069      0.00000
     86      50.6016      0.00000
     87      50.7539      0.00000
     88      51.0741      0.00000
     89      51.5685      0.00000
     90      51.9840      0.00000
     91      52.4270      0.00000
     92      52.8140      0.00000
     93      53.2263      0.00000
     94      53.5888      0.00000
     95      54.4069      0.00000
     96      56.2922      0.00000
     97      56.8260      0.00000
     98      56.8571      0.00000
     99      57.5238      0.00000
    100      57.9885      0.00000
    101      58.6907      0.00000
    102      58.7637      0.00000
    103      59.1682      0.00000
    104      59.5023      0.00000
    105      59.7604      0.00000
    106      60.3209      0.00000
    107      61.0950      0.00000
    108      61.9868      0.00000
    109      62.6280      0.00000
    110      63.5981      0.00000
    111      63.5983      0.00000
    112      63.7418      0.00000
    113      65.4273      0.00000
    114      66.2288      0.00000
    115      66.2997      0.00000
    116      66.5837      0.00000
[...]
     12      11.7716      0.00000
     13      12.0758      0.00000
     14      13.0913      0.00000
     15      13.7597      0.00000
     16      13.9054      0.00000
     17      14.7567      0.00000
     18      15.4474      0.00000
     19      15.4647      0.00000
     20      16.4486      0.00000
     21      17.6826      0.00000
     22      18.3375      0.00000
     23      18.4259      0.00000
     24      18.9512      0.00000
     25      20.4871      0.00000
     26      20.7550      0.00000
     27      23.4210      0.00000
     28      23.7842      0.00000
     29      24.0234      0.00000
     30      24.6513      0.00000
     31      24.7367      0.00000
     32      25.7491      0.00000
     33      25.7639      0.00000
     34      25.8988      0.00000
     35      25.9533      0.00000
     36      26.1754      0.00000
     37      27.3624      0.00000
     38      27.6181      0.00000
     39      27.8599      0.00000
     40      28.1066      0.00000
     41      28.5991      0.00000
     42      30.2930      0.00000
     43      31.1526      0.00000
     44      31.4020      0.00000
     45      32.0381      0.00000
     46      32.2819      0.00000
     47      32.7177      0.00000
     48      33.3683      0.00000
     49      34.3546      0.00000
     50      34.4392      0.00000
     51      35.5897      0.00000
     52      37.3467      0.00000
     53      37.4932      0.00000
     54      37.7139      0.00000
     55      38.2977      0.00000
     56      40.4653      0.00000
     57      41.1394      0.00000
     58      41.2474      0.00000
     59      42.5632      0.00000
     60      43.7448      0.00000
     61      43.8281      0.00000
     62      44.3504      0.00000
     63      44.7441      0.00000
     64      45.1689      0.00000
     65      45.5136      0.00000
     66      48.1241      0.00000
     67      49.0793      0.00000
     68      49.4888      0.00000
     69      50.3811      0.00000
     70      50.7144      0.00000
     71      51.5843      0.00000
     72      51.9057      0.00000
     73      51.9118      0.00000
     74      52.1893      0.00000
     75      52.4902      0.00000
     76      52.5513      0.00000
     77      52.7788      0.00000
     78      53.1959      0.00000
     79      53.9578      0.00000
     80      54.3068      0.00000
     81      54.4126      0.00000
     82      54.6619      0.00000
     83      54.8604      0.00000
     84      54.8783      0.00000
     85      56.7773      0.00000
     86      56.8560      0.00000
     87      56.9968      0.00000
     88      57.6347      0.00000
     89      58.8449      0.00000
     90      58.9970      0.00000
     91      59.1706      0.00000
     92      59.3322      0.00000
     93      59.7331      0.00000
     94      60.2665      0.00000
     95      60.7031      0.00000
     96      61.0989      0.00000
     97      61.2902      0.00000
     98      61.7733      0.00000
     99      63.0395      0.00000
    100      63.0532      0.00000
    101      63.6612      0.00000
    102      64.1845      0.00000
    103      64.4872      0.00000
    104      64.5691      0.00000
    105      64.5793      0.00000
    106      64.8747      0.00000
    107      65.0636      0.00000
    108      65.0890      0.00000
    109      65.1237      0.00000
    110      65.5224      0.00000
    111      66.0132      0.00000
    112      66.8428      0.00000
    113      67.1257      0.00000
    114      67.1760      0.00000
    115      67.2234      0.00000
    116      67.4204      0.00000
    117      67.4700      0.00000
    118      68.2418      0.00000
    119      69.1285      0.00000
    120      69.6547      0.00000
    121      69.7078      0.00000
    122      69.9204      0.00000
    123      70.0939      0.00000
    124      70.7075      0.00000
    125      70.9234      0.00000
    126      71.0391      0.00000
    127      71.0866      0.00000
    128      71.2225      0.00000

 k-point    71 :       0.4688    0.4688    0.0000
  band No.  band energies     occupation 
      1     -16.2455      2.00000
      2     -15.3653      2.00000
      3      -9.3707      2.00000
      4      -4.4522      2.00000
      5      -0.8277      0.00000
      6       4.1338      0.00000
      7       8.8561      0.00000
      8       8.9835      0.00000
      9       9.4518      0.00000
     10       9.9567      0.00000
     11      10.5701      0.00000
     12      10.5881      0.00000
     13      11.5229      0.00000
     14      12.2187      0.00000
     15      12.7637      0.00000
     16      12.8209      0.00000
     17      13.9272      0.00000
     18      15.7830      0.00000
     19      15.9125      0.00000
     20      16.4261      0.00000
     21      17.0426      0.00000
     22      17.0937      0.00000
     23      19.1097      0.00000
     24      19.3540      0.00000
     25      20.6263      0.00000
     26      20.7289      0.00000
     27      21.1884      0.00000
     28      22.4310      0.00000
     29      22.7213      0.00000
     30      22.7837      0.00000
     31      22.9054      0.00000
     32      24.4051      0.00000
     33      24.7513      0.00000
     34      25.0943      0.00000
     35      26.8294      0.00000
     36      26.9514      0.00000
     37      27.4701      0.00000
     38      28.4428      0.00000
     39      28.6026      0.00000
     40      28.8869      0.00000
     41      29.1048      0.00000
     42      29.4148      0.00000
     43      29.9980      0.00000
     44      30.6461      0.00000
     45      30.7464      0.00000
     46      32.9284      0.00000
     47      33.0545      0.00000
     48      34.2620      0.00000
     49      34.5681      0.00000
     50      34.7280      0.00000
     51      35.1904      0.00000
     52      36.8046      0.00000
     53      36.9135      0.00000
     54      37.6497      0.00000
     55      39.0272      0.00000
     56      40.1275      0.00000
     57      40.4514      0.00000
     58      41.0376      0.00000
     59      41.7502      0.00000
     60      44.3449      0.00000
     61      45.6341      0.00000
     62      46.2506      0.00000
     63      46.3156      0.00000
     64      46.7907      0.00000
     65      46.9290      0.00000
     66      46.9353      0.00000
     67      47.2244      0.00000
     68      48.5788      0.00000
     69      49.4888      0.00000
     70      51.4903      0.00000
     71      52.1517      0.00000
     72      52.9874      0.00000
     73      53.4614      0.00000
     74      53.7904      0.00000
     75      54.8082      0.00000
     76      55.0381      0.00000
     77      55.1091      0.00000
     78      55.2017      0.00000
     79      55.5046      0.00000
     80      55.6016      0.00000
     81      55.7214      0.00000
     82      56.0908      0.00000
     83      56.2240      0.00000
     84      56.6674      0.00000
     85      56.9311      0.00000
     86      57.6140      0.00000
     87      57.7669      0.00000
     88      57.9146      0.00000
     89      58.4793      0.00000
     90      58.6029      0.00000
     91      58.7354      0.00000
     92      59.6628      0.00000
     93      60.7008      0.00000
     94      60.9391      0.00000
     95      60.9959      0.00000
     96      61.3566      0.00000
     97      61.5419      0.00000
     98      61.7407      0.00000
     99      61.7417      0.00000
    100      61.7524      0.00000
    101      62.3268      0.00000
    102      62.6660      0.00000
    103      63.0779      0.00000
    104      63.3574      0.00000
    105      63.9542      0.00000
    106      63.9783      0.00000
    107      64.3405      0.00000
    108      65.2555      0.00000
    109      65.7010      0.00000
    110      66.5554      0.00000
    111      66.9432      0.00000
    112      67.1491      0.00000
    113      67.3991      0.00000
    114      67.4117      0.00000
    115      67.5046      0.00000
    116      67.6601      0.00000
    117      67.8832      0.00000
    118      68.3303      0.00000
    119      68.3435      0.00000
    120      68.7102      0.00000
    121      69.0829      0.00000
    122      69.2293      0.00000
    123      69.5893      0.00000
    124      70.2818      0.00000
    125      72.3912      0.00000
    126      72.4138      0.00000
    127      72.6446      0.00000
    128      72.7644      0.00000

 k-point    72 :      -0.4687    0.4687    0.0000
  band No.  band energies     occupation 
      1     -16.6593      2.00000
      2     -15.0255      2.00000
      3      -9.0636      2.00000
      4      -4.6814      2.00000
      5      -0.6113      0.00000
      6       3.7561      0.00000
      7       7.9077      0.00000
      8       8.7599      0.00000
      9       9.5082      0.00000
     10       9.8170      0.00000
     11      10.5055      0.00000
     12      11.0614      0.00000
     13      11.5313      0.00000
     14      11.7945      0.00000
     15      12.6945      0.00000
     16      13.6774      0.00000
     17      14.0271      0.00000
     18      15.4941      0.00000
     19      15.7786      0.00000
     20      16.6680      0.00000
     21      16.9632      0.00000
     22      17.9156      0.00000
     23      18.0872      0.00000
     24      19.2104      0.00000
     25      20.4388      0.00000
     26      20.5420      0.00000
     27      22.7505      0.00000
     28      22.9010      0.00000
     29      23.4781      0.00000
     30      24.1884      0.00000
     31      24.9464      0.00000
     32      24.9648      0.00000
     33      25.4930      0.00000
     34      25.4990      0.00000
     35      25.6983      0.00000
     36      26.5027      0.00000
     37      27.1877      0.00000
     38      27.5611      0.00000
     39      27.8512      0.00000
     40      28.0686      0.00000
     41      28.6310      0.00000
     42      29.2115      0.00000
     43      30.5671      0.00000
     44      30.9554      0.00000
     45      31.0263      0.00000
     46      31.7847      0.00000
     47      32.1782      0.00000
     48      33.4155      0.00000
     49      33.9630      0.00000
     50      35.1581      0.00000
     51      36.1024      0.00000
     52      37.1001      0.00000
     53      37.1527      0.00000
     54      37.3903      0.00000
     55      37.6624      0.00000
     56      38.3575      0.00000
     57      41.3919      0.00000
     58      41.7267      0.00000
     59      43.4929      0.00000
     60      43.6991      0.00000
     61      43.8002      0.00000
     62      45.0249      0.00000
     63      46.0449      0.00000
     64      46.6105      0.00000
     65      47.1111      0.00000
     66      47.3886      0.00000
     67      48.3479      0.00000
     68      49.0917      0.00000
     69      51.0369      0.00000
     70      51.1924      0.00000
     71      51.6016      0.00000
     72      52.1048      0.00000
     73      53.2583      0.00000
     74      53.5260      0.00000
     75      54.4789      0.00000
     76      54.5869      0.00000
     77      55.3043      0.00000
     78      55.6688      0.00000
     79      55.8399      0.00000
     80      55.9655      0.00000
     81      56.3815      0.00000
     82      56.4464      0.00000
     83      56.6745      0.00000
     84      56.8349      0.00000
     85      57.6578      0.00000
     86      58.3207      0.00000
     87      58.6414      0.00000
     88      58.7293      0.00000
     89      58.7979      0.00000
     90      59.4254      0.00000
     91      59.4569      0.00000
     92      59.9257      0.00000
     93      60.2239      0.00000
     94      60.4373      0.00000
     95      60.5219      0.00000
     96      60.5544      0.00000
     97      60.7990      0.00000
     98      61.0095      0.00000
     99      61.8268      0.00000
    100      61.8616      0.00000
    101      62.4344      0.00000
    102      62.6367      0.00000
    103      62.6662      0.00000
    104      62.9246      0.00000
    105      62.9368      0.00000
    106      63.2369      0.00000
    107      63.5566      0.00000
    108      64.4742      0.00000
    109      65.3533      0.00000
    110      66.3703      0.00000
    111      66.4652      0.00000
    112      66.7927      0.00000
    113      67.0440      0.00000
    114      67.0798      0.00000
    115      67.6502      0.00000
    116      67.8620      0.00000
    117      68.0211      0.00000
    118      68.1163      0.00000
    119      68.4008      0.00000
    120      69.1122      0.00000
    121      69.3420      0.00000
    122      70.0519      0.00000
    123      70.9130      0.00000
    124      71.4001      0.00000
    125      71.5703      0.00000
    126      71.8522      0.00000
    127      72.2546      0.00000
    128      72.2830      0.00000


--------------------------------------------------------------------------------------------------------


 soft charge-density along one line, spin component           1
         0         1         2         3         4         5         6         7         8         9
 total charge-density along one line
 
 pseudopotential strength for first ion, spin component:           1
 10.213   0.019   0.000  -0.000  -0.000  -0.000   0.000   0.000
  0.019  -0.002   0.000   0.000   0.000  -0.000   0.000   0.000
  0.000   0.000  -4.334   0.000  -0.000  -0.016   0.000  -0.000
 -0.000   0.000   0.000  -4.329   0.000   0.000  -0.013   0.000
 -0.000   0.000  -0.000   0.000  -4.334  -0.000   0.000  -0.016
 -0.000  -0.000  -0.016   0.000  -0.000  -0.772   0.000  -0.000
  0.000   0.000   0.000  -0.013   0.000   0.000  -0.772   0.000
  0.000   0.000  -0.000   0.000  -0.016  -0.000   0.000  -0.772
 total augmentation occupancy for first ion, spin component:           1
  1.457  -1.063   0.011   0.000   0.000   0.005   0.000   0.000
 -1.063   0.967  -0.020   0.000   0.000  -0.007   0.000   0.000
  0.011  -0.020   1.207   0.000   0.000   0.212   0.000   0.000
  0.000   0.000   0.000   0.927  -0.000   0.000   0.097   0.000
  0.000   0.000   0.000  -0.000   1.174   0.000   0.000   0.211
  0.005  -0.007   0.212   0.000   0.000   0.043   0.000   0.000
  0.000   0.000   0.000   0.097   0.000   0.000   0.011   0.000
  0.000   0.000   0.000   0.000   0.211   0.000   0.000   0.043


------------------------ aborting loop because EDIFF is reached ----------------------------------------


    CHARGE:  cpu time    0.0120: real time    0.0122
    FORLOC:  cpu time    0.0010: real time    0.0003
    FORNL :  cpu time    0.1230: real time    0.1230
    STRESS:  cpu time    0.2280: real time    0.2283
    FORHAR:  cpu time    0.0020: real time    0.0020
    MIXING:  cpu time    0.0000: real time    0.0003
    OFIELD:  cpu time    0.0000: real time    0.0000

  FORCE on cell =-STRESS in cart. coord.  units (eV):
  Direction    XX          YY          ZZ          XY          YZ          ZX
  --------------------------------------------------------------------------------------
  Alpha Z     3.86321     3.86321     3.86321
  Ewald    1112.81987  1114.08383 -1378.12451     0.00000    -0.00000    -0.00000
  Hartree  1087.90996  1088.34956 -1076.46102     0.00000     0.00000    -0.00000
  E(xc)     -28.88781   -28.90536   -30.05204     0.00000    -0.00000     0.00000
  Local   -2288.28649 -2289.72483  2351.49035    -0.00000     0.00000    -0.00000
  n-local    -6.44174    -6.84385    -6.20279     0.12986     0.00000     0.00000
  augment    -0.72637    -0.72759    -0.67740     0.00000     0.00000     0.00000
  Kinetic   116.39755   119.38215   136.15355    -1.81948     0.00000    -0.00000
  Fock        0.00000     0.00000     0.00000     0.00000     0.00000     0.00000
  -------------------------------------------------------------------------------------
  Total      -3.35181    -0.52287    -0.01066    -0.00000     0.00000     0.00000
  in kB     -63.65407    -9.92984    -0.20236    -0.00000     0.00000     0.00000
  external pressure =      -24.60 kB  Pullay stress =        0.00 kB


 VOLUME and BASIS-vectors are now :
 -----------------------------------------------------------------------------
  energy-cutoff  :      520.00
  volume of cell :       84.37
      direct lattice vectors                 reciprocal lattice vectors
     1.271233119 -2.137714457  0.000000000     0.393318891 -0.233894662  0.000000000
     1.271233119  2.137714457  0.000000000     0.393318891  0.233894662  0.000000000
     0.000000000  0.000000000 15.522393743     0.000000000  0.000000000  0.064423053

  length of vectors
     2.487138264  2.487138264 15.522393743     0.457609509  0.457609509  0.064423053


 FORCES acting on ions
    electron-ion (+dipol)            ewald-force                    non-local-force                 convergence-correction
 -----------------------------------------------------------------------------------------------
   0.568E-13 0.520E+01 0.220E-11   -.123E-14 -.520E+01 -.127E-20   0.833E-16 -.803E-03 0.569E-24   0.721E-14 0.359E-02 -.289E-11
   -.186E-11 -.520E+01 0.557E-11   -.988E-14 0.520E+01 0.127E-20   -.278E-16 0.803E-03 0.000E+00   0.339E-14 -.359E-02 -.295E-11
 -----------------------------------------------------------------------------------------------
   -.180E-11 0.264E-11 0.776E-11   -.111E-13 -.355E-14 0.000E+00   0.555E-16 0.000E+00 0.569E-24   0.106E-13 0.192E-13 -.584E-11
 
 
 POSITION                                       TOTAL-FORCE (eV/Angst)
 -----------------------------------------------------------------------------------
      1.27123     -0.71579      7.76120         0.000000     -0.001151     -0.000000
      1.27123      0.71579      7.76120         0.000000      0.001151      0.000000
 -----------------------------------------------------------------------------------
    total drift:                               -0.000000      0.000000      0.000000


--------------------------------------------------------------------------------------------------------



  FREE ENERGIE OF THE ION-ELECTRON SYSTEM (eV)
  ---------------------------------------------------
  free  energy   TOTEN  =       -18.39160744 eV

  energy  without entropy=      -18.39140675  energy(sigma->0) =      -18.39150710
 
 d Force = 0.5059192E-05[ 0.509E-06, 0.961E-05]  d Energy = 0.4955060E-05 0.104E-06
 d Force = 0.2317381E-02[ 0.230E-02, 0.233E-02]  d Ewald  = 0.2317377E-02 0.415E-08


--------------------------------------------------------------------------------------------------------


    POTLOK:  cpu time    0.0100: real time    0.0093


--------------------------------------------------------------------------------------------------------




--------------------------------------------------------------------------------------------------------


  
 reached required accuracy - stopping structural energy minimisation
     LOOP+:  cpu time    7.9898: real time    8.0039
    4ORBIT:  cpu time    0.0000: real time    0.0000

 total amount of memory used by VASP MPI-rank0    46229. kBytes
=======================================================================

   base      :      30000. kBytes
   nonl-proj :       1577. kBytes
   fftplans  :        727. kBytes
   grid      :       1094. kBytes
   one-center:          3. kBytes
   wavefun   :      12828. kBytes
 
  
  
 General timing and accounting informations for this job:
 ========================================================
  
                  Total CPU time used (sec):       95.853
                            User time (sec):       95.126
                          System time (sec):        0.728
                         Elapsed time (sec):       96.019
  
                   Maximum memory used (kb):       73936.
                   Average memory used (kb):           0.
  
                          Minor page faults:        11671
                          Major page faults:            0
                 Voluntary context switches:          299
