<?xml version="1.0" encoding="ISO-8859-1"?>
<modeling>
 <generator>
  <i name="program" type="string">vasp </i>
  <i name="version" type="string">5.4.4.18Apr17-6-g9f103f2a35  </i>
  <i name="subversion" type="string">(build Nov 22 2017 20:28:56) complex            parallel </i>
  <i name="platform" type="string">LinuxIFC </i>
  <i name="date" type="string">2019 10 06 </i>
  <i name="time" type="string">19:58:53 </i>
 </generator>
 <incar>
  <i type="int" name="ISTART">     0</i>
  <i type="string" name="PREC">accurate</i>
  <i type="int" name="IALGO">    48</i>
  <i type="string" name="ALGO"> Normal</i>
  <i type="int" name="NSIM">     4</i>
  <i type="int" name="IBRION">     2</i>
  <i name="EDIFF">      0.00000100</i>
  <i type="int" name="NSW">    50</i>
  <i type="int" name="ISIF">     2</i>
  <i type="int" name="ISYM">     2</i>
  <i name="ENCUT">    520.00000000</i>
  <i type="int" name="NBANDS">   128</i>
  <i name="POTIM">      0.10000000</i>
  <i type="logical" name="LPLANE"> T  </i>
  <i type="int" name="ISMEAR">     0</i>
  <i name="SIGMA">      0.10000000</i>
  <i type="logical" name="LWAVE"> F  </i>
  <i type="logical" name="LCHARG"> F  </i>
  <v type="int" name="KPOINT_BSE">    -1     0     0     0</v>
 </incar>
 <structure name="primitive_cell" >
  <crystal>
   <varray name="basis" >
    <v>       1.27123312      -2.13771446       0.00000000 </v>
    <v>       1.27123312       2.13771446       0.00000000 </v>
    <v>       0.00000000       0.00000000      15.52239374 </v>
   </varray>
   <i name="volume">     84.36524741 </i>
   <varray name="rec_basis" >
    <v>       0.39331889      -0.23389466       0.00000000 </v>
    <v>       0.39331889       0.23389466       0.00000000 </v>
    <v>       0.00000000       0.00000000       0.06442305 </v>
   </varray>
  </crystal>
  <varray name="positions" >
   <v>      -0.33333238       0.33333238      -0.50000000 </v>
   <v>       0.33333238      -0.33333238      -0.50000000 </v>
  </varray>
 </structure>
 <varray name="primitive_index" >
  <v type="int" >        1 </v>
  <v type="int" >        2 </v>
 </varray>
 <kpoints>
  <generation param="Monkhorst-Pack">
   <v type="int" name="divisions">      16       16        1 </v>
   <v name="usershift">      0.00000000       0.00000000       0.00000000 </v>
   <v name="genvec1">      0.06250000       0.00000000       0.00000000 </v>
   <v name="genvec2">      0.00000000       0.06250000       0.00000000 </v>
   <v name="genvec3">      0.00000000       0.00000000       1.00000000 </v>
   <v name="shift">      0.50000000       0.50000000       0.00000000 </v>
  </generation>
  <varray name="kpointlist" >
   <v>       0.03125000       0.03125000       0.00000000 </v>
   <v>       0.09375000       0.03125000       0.00000000 </v>
   <v>       0.15625000       0.03125000       0.00000000 </v>
   <v>       0.21875000       0.03125000       0.00000000 </v>
   <v>       0.28125000       0.03125000       0.00000000 </v>
   <v>       0.34375000       0.03125000       0.00000000 </v>
   <v>       0.40625000       0.03125000       0.00000000 </v>
   <v>       0.46875000       0.03125000       0.00000000 </v>
   <v>      -0.46875000       0.03125000       0.00000000 </v>
   <v>      -0.40625000       0.03125000       0.00000000 </v>
   <v>      -0.34375000       0.03125000       0.00000000 </v>
   <v>      -0.28125000       0.03125000       0.00000000 </v>
   <v>      -0.21875000       0.03125000       0.00000000 </v>
   <v>      -0.15625000       0.03125000       0.00000000 </v>
   <v>      -0.09375000       0.03125000       0.00000000 </v>
   <v>      -0.03125000       0.03125000       0.00000000 </v>
   <v>       0.09375000       0.09375000       0.00000000 </v>
   <v>       0.15625000       0.09375000       0.00000000 </v>
   <v>       0.21875000       0.09375000       0.00000000 </v>
   <v>       0.28125000       0.09375000       0.00000000 </v>
   <v>       0.34375000       0.09375000       0.00000000 </v>
   <v>       0.40625000       0.09375000       0.00000000 </v>
   <v>       0.46875000       0.09375000       0.00000000 </v>
   <v>      -0.46875000       0.09375000       0.00000000 </v>
   <v>      -0.40625000       0.09375000       0.00000000 </v>
   <v>      -0.34375000       0.09375000       0.00000000 </v>
   <v>      -0.28125000       0.09375000       0.00000000 </v>
   <v>      -0.21875000       0.09375000       0.00000000 </v>
   <v>      -0.15625000       0.09375000       0.00000000 </v>
   <v>      -0.09375000       0.09375000       0.00000000 </v>
   <v>       0.15625000       0.15625000       0.00000000 </v>
   <v>       0.21875000       0.15625000       0.00000000 </v>
   <v>       0.28125000       0.15625000       0.00000000 </v>
   <v>       0.34375000       0.15625000       0.00000000 </v>
   <v>       0.40625000       0.15625000       0.00000000 </v>
   <v>       0.46875000       0.15625000       0.00000000 </v>
   <v>      -0.46875000       0.15625000       0.00000000 </v>
   <v>      -0.40625000       0.15625000       0.00000000 </v>
   <v>      -0.34375000       0.15625000       0.00000000 </v>
   <v>      -0.28125000       0.15625000       0.00000000 </v>
   <v>      -0.21875000       0.15625000       0.00000000 </v>
   <v>      -0.15625000       0.15625000       0.00000000 </v>
   <v>       0.21875000       0.21875000       0.00000000 </v>
   <v>       0.28125000       0.21875000       0.00000000 </v>
   <v>       0.34375000       0.21875000       0.00000000 </v>
   <v>       0.40625000       0.21875000       0.00000000 </v>
   <v>       0.46875000       0.21875000       0.00000000 </v>
   <v>      -0.46875000       0.21875000       0.00000000 </v>
   <v>      -0.40625000       0.21875000       0.00000000 </v>
   <v>      -0.34375000       0.21875000       0.00000000 </v>
   <v>      -0.28125000       0.21875000       0.00000000 </v>
   <v>      -0.21875000       0.21875000       0.00000000 </v>
   <v>       0.28125000       0.28125000       0.00000000 </v>
   <v>       0.34375000       0.28125000       0.00000000 </v>
   <v>       0.40625000       0.28125000       0.00000000 </v>
   <v>       0.46875000       0.28125000       0.00000000 </v>
   <v>      -0.46875000       0.28125000       0.00000000 </v>
   <v>      -0.40625000       0.28125000       0.00000000 </v>
   <v>      -0.34375000       0.28125000       0.00000000 </v>
   <v>      -0.28125000       0.28125000       0.00000000 </v>
   <v>       0.34375000       0.34375000       0.00000000 </v>
   <v>       0.40625000       0.34375000       0.00000000 </v>
   <v>       0.46875000       0.34375000       0.00000000 </v>
   <v>      -0.46875000       0.34375000       0.00000000 </v>
   <v>      -0.40625000       0.34375000       0.00000000 </v>
   <v>      -0.34375000       0.34375000       0.00000000 </v>
   <v>       0.40625000       0.40625000       0.00000000 </v>
   <v>       0.46875000       0.40625000       0.00000000 </v>
   <v>      -0.46875000       0.40625000       0.00000000 </v>
   <v>      -0.40625000       0.40625000       0.00000000 </v>
   <v>       0.46875000       0.46875000       0.00000000 </v>
   <v>      -0.46875000       0.46875000       0.00000000 </v>
  </varray>
  <varray name="weights" >
   <v>       0.00781250 </v>
   <v>       0.01562500 </v>
   <v>       0.01562500 </v>
   <v>       0.01562500 </v>
   <v>       0.01562500 </v>
   <v>       0.01562500 </v>
   <v>       0.01562500 </v>
   <v>       0.01562500 </v>
   <v>       0.01562500 </v>
   <v>       0.01562500 </v>
   <v>       0.01562500 </v>
   <v>       0.01562500 </v>
   <v>       0.01562500 </v>
   <v>       0.01562500 </v>
   <v>       0.01562500 </v>
   <v>       0.00781250 </v>
   <v>       0.00781250 </v>
   <v>       0.01562500 </v>
   <v>       0.01562500 </v>
   <v>       0.01562500 </v>
   <v>       0.01562500 </v>
   <v>       0.01562500 </v>
   <v>       0.01562500 </v>
   <v>       0.01562500 </v>
   <v>       0.01562500 </v>
   <v>       0.01562500 </v>
   <v>       0.01562500 </v>
   <v>       0.01562500 </v>
   <v>       0.01562500 </v>
   <v>       0.00781250 </v>
   <v>       0.00781250 </v>
   <v>       0.01562500 </v>
   <v>       0.01562500 </v>
   <v>       0.01562500 </v>
   <v>       0.01562500 </v>
   <v>       0.01562500 </v>
   <v>       0.01562500 </v>
   <v>       0.01562500 </v>
   <v>       0.01562500 </v>
   <v>       0.01562500 </v>
   <v>       0.01562500 </v>
   <v>       0.00781250 </v>
   <v>       0.00781250 </v>
   <v>       0.01562500 </v>
   <v>       0.01562500 </v>
   <v>       0.01562500 </v>
   <v>       0.01562500 </v>
   <v>       0.01562500 </v>
   <v>       0.01562500 </v>
   <v>       0.01562500 </v>
   <v>       0.01562500 </v>
   <v>       0.00781250 </v>
   <v>       0.00781250 </v>
   <v>       0.01562500 </v>
   <v>       0.01562500 </v>
   <v>       0.01562500 </v>
   <v>       0.01562500 </v>
   <v>       0.01562500 </v>
   <v>       0.01562500 </v>
   <v>       0.00781250 </v>
   <v>       0.00781250 </v>
   <v>       0.01562500 </v>
   <v>       0.01562500 </v>
   <v>       0.01562500 </v>
   <v>       0.01562500 </v>
   <v>       0.00781250 </v>
   <v>       0.00781250 </v>
   <v>       0.01562500 </v>
   <v>       0.01562500 </v>
   <v>       0.00781250 </v>
   <v>       0.00781250 </v>
   <v>       0.00781250 </v>
  </varray>
 </kpoints>
 <parameters>
  <separator name="general" >
   <i type="string" name="SYSTEM">unknown system</i>
   <i type="logical" name="LCOMPAT"> F  </i>
  </separator>
  <separator name="electronic" >
   <i type="string" name="PREC">accura</i>
   <i name="ENMAX">    520.00000000</i>
   <i name="ENAUG">    644.87300000</i>
   <i name="EDIFF">      0.00000100</i>
   <i type="int" name="IALGO">    38</i>
   <i type="int" name="IWAVPR">    11</i>
   <i type="int" name="NBANDS">   128</i>
   <i name="NELECT">      8.00000000</i>
   <i type="int" name="TURBO">     0</i>
   <i type="int" name="IRESTART">     0</i>
   <i type="int" name="NREBOOT">     0</i>
   <i type="int" name="NMIN">     0</i>
   <i name="EREF">      0.00000000</i>
   <separator name="electronic smearing" >
    <i type="int" name="ISMEAR">     0</i>
    <i name="SIGMA">      0.10000000</i>
    <i name="KSPACING">      0.50000000</i>
    <i type="logical" name="KGAMMA"> T  </i>
   </separator>
   <separator name="electronic projectors" >
    <i type="logical" name="LREAL"> F  </i>
    <v name="ROPT">      0.00000000</v>
    <i type="int" name="LMAXPAW">  -100</i>
    <i type="int" name="LMAXMIX">     2</i>
    <i type="logical" name="NLSPLINE"> F  </i>
   </separator>
   <separator name="electronic startup" >
    <i type="int" name="ISTART">     0</i>
    <i type="int" name="ICHARG">     2</i>
    <i type="int" name="INIWAV">     1</i>
   </separator>
   <separator name="electronic spin" >
    <i type="int" name="ISPIN">     1</i>
    <i type="logical" name="LNONCOLLINEAR"> F  </i>
    <v name="MAGMOM">      1.00000000      1.00000000</v>
    <i name="NUPDOWN">     -1.00000000</i>
    <i type="logical" name="LSORBIT"> F  </i>
    <v name="SAXIS">      0.00000000      0.00000000      1.00000000</v>
    <i type="logical" name="LSPIRAL"> F  </i>
    <v name="QSPIRAL">      0.00000000      0.00000000      0.00000000</v>
    <i type="logical" name="LZEROZ"> F  </i>
   </separator>
   <separator name="electronic exchange-correlation" >
    <i type="logical" name="LASPH"> F  </i>
    <i type="logical" name="LMETAGGA"> F  </i>
   </separator>
   <separator name="electronic convergence" >
    <i type="int" name="NELM">    60</i>
    <i type="int" name="NELMDL">    -5</i>
    <i type="int" name="NELMIN">     2</i>
    <i name="ENINI">    520.00000000</i>
    <separator name="electronic convergence detail" >
     <i type="logical" name="LDIAG"> T  </i>
     <i type="logical" name="LSUBROT"> F  </i>
     <i name="WEIMIN">      0.00100000</i>
     <i name="EBREAK">      0.00000000</i>
     <i name="DEPER">      0.30000000</i>
     <i type="int" name="NRMM">     4</i>
     <i name="TIME">      0.40000000</i>
    </separator>
   </separator>
   <separator name="electronic mixer" >
    <i name="AMIX">      0.40000000</i>
    <i name="BMIX">      1.00000000</i>
    <i name="AMIN">      0.10000000</i>
    <i name="AMIX_MAG">      1.60000000</i>
    <i name="BMIX_MAG">      1.00000000</i>
    <separator name="electronic mixer details" >
     <i type="int" name="IMIX">     4</i>
     <i type="logical" name="MIXFIRST"> F  </i>
     <i type="int" name="MAXMIX">   -45</i>
     <i name="WC">    100.00000000</i>
     <i type="int" name="INIMIX">     1</i>
     <i type="int" name="MIXPRE">     1</i>
     <i type="int" name="MREMOVE">     5</i>
    </separator>
   </separator>
   <separator name="electronic dipolcorrection" >
    <i type="logical" name="LDIPOL"> F  </i>
    <i type="logical" name="LMONO"> F  </i>
    <i type="int" name="IDIPOL">     0</i>
    <i name="EPSILON">      1.00000000</i>
    <v name="DIPOL">   -100.00000000   -100.00000000   -100.00000000</v>
    <i name="EFIELD">      0.00000000</i>
   </separator>
  </separator>
  <separator name="grids" >
   <i type="int" name="NGX">    18</i>
   <i type="int" name="NGY">    18</i>
   <i type="int" name="NGZ">   120</i>
   <i type="int" name="NGXF">    36</i>
   <i type="int" name="NGYF">    36</i>
   <i type="int" name="NGZF">   240</i>
   <i type="logical" name="ADDGRID"> F  </i>
  </separator>
  <separator name="ionic" >
   <i type="int" name="NSW">    50</i>
   <i type="int" name="IBRION">     2</i>
   <i type="int" name="MDALGO">     0</i>
   <i type="int" name="ISIF">     2</i>
   <i name="PSTRESS">      0.00000000</i>
   <i name="EDIFFG">      0.00001000</i>
   <i type="int" name="NFREE">     1</i>
   <i name="POTIM">      0.10000000</i>
   <i name="SMASS">     -3.00000000</i>
   <i name="SCALEE">      1.00000000</i>
  </separator>
  <separator name="ionic md" >
   <i name="TEBEG">      0.00010000</i>
   <i name="TEEND">      0.00010000</i>
   <i type="int" name="NBLOCK">     1</i>
   <i type="int" name="KBLOCK">    50</i>
   <i type="int" name="NPACO">   256</i>
   <i name="APACO">     16.00000000</i>
  </separator>
  <separator name="symmetry" >
   <i type="int" name="ISYM">     2</i>
   <i name="SYMPREC">      0.00001000</i>
  </separator>
  <separator name="dos" >
   <i type="int" name="LORBIT">     0</i>
   <v name="RWIGS">     -1.00000000</v>
   <i type="int" name="NEDOS">   301</i>
   <i name="EMIN">     10.00000000</i>
   <i name="EMAX">    -10.00000000</i>
   <i name="EFERMI">      0.00000000</i>
  </separator>
  <separator name="writing" >
   <i type="int" name="NWRITE">     2</i>
   <i type="logical" name="LWAVE"> F  </i>
   <i type="logical" name="LDOWNSAMPLE"> F  </i>
   <i type="logical" name="LCHARG"> F  </i>
   <i type="logical" name="LPARD"> F  </i>
   <i type="logical" name="LVTOT"> F  </i>
   <i type="logical" name="LVHAR"> F  </i>
   <i type="logical" name="LELF"> F  </i>
   <i type="logical" name="LOPTICS"> F  </i>
   <v name="STM">      0.00000000      0.00000000      0.00000000      0.00000000      0.00000000      0.00000000      0.00000000</v>
  </separator>
  <separator name="performance" >
   <i type="int" name="NPAR">     4</i>
   <i type="int" name="NSIM">     4</i>
   <i type="int" name="NBLK">    -1</i>
   <i type="logical" name="LPLANE"> T  </i>
   <i type="logical" name="LSCALAPACK"> T  </i>
   <i type="logical" name="LSCAAWARE"> T  </i>
   <i type="logical" name="LSCALU"> F  </i>
   <i type="logical" name="LASYNC"> F  </i>
   <i type="logical" name="LORBITALREAL"> F  </i>
  </separator>
  <separator name="miscellaneous" >
   <i type="int" name="IDIOT">     3</i>
   <i type="int" name="ISPECIAL">     0</i>
   <i type="logical" name="LMUSIC"> F  </i>
   <v name="POMASS">     12.01100000</v>
   <v name="DARWINR">      0.00000000</v>
   <v name="DARWINV">      1.00000000</v>
   <i type="logical" name="LCORR"> T  </i>
  </separator>
  <i type="logical" name="GGA_COMPAT"> T  </i>
  <i type="logical" name="LBERRY"> F  </i>
  <i type="int" name="ICORELEVEL">     0</i>
  <i type="logical" name="LDAU"> F  </i>
  <i type="int" name="I_CONSTRAINED_M">     0</i>
  <separator name="electronic exchange-correlation" >
   <i type="string" name="GGA">--</i>
   <i type="int" name="VOSKOWN">     0</i>
   <i type="logical" name="LHFCALC"> F  </i>
   <i type="string" name="PRECFOCK"></i>
   <i type="logical" name="LSYMGRAD"> F  </i>
   <i type="logical" name="LHFONE"> F  </i>
   <i type="logical" name="LRHFCALC"> F  </i>
   <i type="logical" name="LTHOMAS"> F  </i>
   <i type="logical" name="LMODELHF"> F  </i>
   <i name="ENCUT4O">     -1.00000000</i>
   <i type="int" name="EXXOEP">     0</i>
   <i type="int" name="FOURORBIT">     0</i>
   <i name="AEXX">      0.00000000</i>
   <i name="HFALPHA">      0.00000000</i>
   <i name="MCALPHA">      0.00000000</i>
   <i name="ALDAX">      1.00000000</i>
   <i name="AGGAX">      1.00000000</i>
   <i name="ALDAC">      1.00000000</i>
   <i name="AGGAC">      1.00000000</i>
   <i type="int" name="NKREDX">     1</i>
   <i type="int" name="NKREDY">     1</i>
   <i type="int" name="NKREDZ">     1</i>
   <i type="logical" name="SHIFTRED"> F  </i>
   <i type="logical" name="ODDONLY"> F  </i>
   <i type="logical" name="EVENONLY"> F  </i>
   <i type="int" name="LMAXFOCK">     0</i>
   <i type="int" name="NMAXFOCKAE">     0</i>
   <i type="logical" name="LFOCKAEDFT"> F  </i>
   <i name="HFSCREEN">      0.00000000</i>
   <i name="HFSCREENC">      0.00000000</i>
   <i type="int" name="NBANDSGWLOW">     0</i>
  </separator>
  <separator name="vdW DFT" >
   <i type="logical" name="LUSE_VDW"> F  </i>
   <i name="Zab_VDW">     -0.84910000</i>
   <i name="PARAM1">      0.12340000</i>
   <i name="PARAM2">      1.00000000</i>
   <i name="PARAM3">      0.00000000</i>
  </separator>
  <separator name="model GW" >
   <i type="int" name="MODEL_GW">     0</i>
   <i name="MODEL_EPS0">     25.30957422</i>
   <i name="MODEL_ALPHA">      1.00000000</i>
  </separator>
  <separator name="linear response parameters" >
   <i type="logical" name="LEPSILON"> F  </i>
   <i type="logical" name="LRPA"> F  </i>
   <i type="logical" name="LNABLA"> F  </i>
   <i type="logical" name="LVEL"> F  </i>
   <i type="int" name="KINTER">     0</i>
   <i name="CSHIFT">      0.10000000</i>
   <i name="OMEGAMAX">     -1.00000000</i>
   <i name="DEG_THRESHOLD">      0.00200000</i>
   <i name="RTIME">     -0.10000000</i>
   <i name="WPLASMAI">      0.00000000</i>
   <v name="DFIELD">      0.00000000      0.00000000      0.00000000</v>
   <v name="WPLASMA">      0.00000000      0.00000000      0.00000000      0.00000000      0.00000000      0.00000000      0.00000000      0.00000000      0.00000000</v>
  </separator>
  <separator name="orbital magnetization" >
   <i type="logical" name="NUCIND"> F  </i>
   <v name="MAGPOS">      0.00000000      0.00000000      0.00000000</v>
   <i type="logical" name="LNICSALL"> T  </i>
   <i type="logical" name="ORBITALMAG"> F  </i>
   <i type="logical" name="LMAGBLOCH"> F  </i>
   <i type="logical" name="LCHIMAG"> F  </i>
   <i type="logical" name="LGAUGE"> T  </i>
   <i type="int" name="MAGATOM">     0</i>
   <v name="MAGDIPOL">      0.00000000      0.00000000      0.00000000</v>
   <v name="AVECCONST">      0.00000000      0.00000000      0.00000000</v>
  </separator>
  <separator name="response functions" >
   <i type="logical" name="LADDER"> F  </i>
   <i type="logical" name="LRPAFORCE"> F  </i>
   <i type="logical" name="LFXC"> F  </i>
   <i type="logical" name="LHARTREE"> T  </i>
   <i type="int" name="IBSE">     0</i>
   <v type="int" name="KPOINT">    -1     0     0     0</v>
   <i type="logical" name="LTCTE"> F  </i>
   <i type="logical" name="LTETE"> F  </i>
   <i type="logical" name="LTRIPLET"> F  </i>
   <i type="logical" name="LFXCEPS"> F  </i>
   <i type="logical" name="LFXHEG"> F  </i>
   <i type="int" name="NATURALO">     2</i>
   <i type="logical" name="L2ORDER"> F  </i>
   <i type="logical" name="LMP2LT"> F  </i>
   <i type="logical" name="LUSEW"> F  </i>
   <i name="ENCUTGW">     -2.00000000</i>
   <i name="ENCUTGWSOFT">     -2.00000000</i>
   <i name="ENCUTLF">     -1.00000000</i>
   <i type="int" name="LMAXMP2">    -1</i>
   <i name="SCISSOR">      0.00000000</i>
   <i type="int" name="NOMEGA">     0</i>
   <i type="int" name="NOMEGAR">     0</i>
   <i type="int" name="NBANDSGW">    -1</i>
   <i type="int" name="NBANDSO">    -1</i>
   <i type="int" name="NBANDSV">    -1</i>
   <i type="int" name="NELM">     1</i>
   <i type="int" name="NELMHF">     1</i>
   <i type="int" name="DIM">     3</i>
   <i type="int" name="ANTIRES">     0</i>
   <i name="OMEGAMAX">    -30.00000000</i>
   <i name="OMEGAMIN">    -30.00000000</i>
   <i name="OMEGATL">   -200.00000000</i>
   <i type="int" name="OMEGAGRID">   140</i>
   <i name="CSHIFT">     -0.10000000</i>
   <i type="logical" name="SELFENERGY"> F  </i>
   <i type="logical" name="LSPECTRAL"> F  </i>
   <i type="logical" name="LSPECTRALGW"> F  </i>
   <i type="logical" name="LSINGLES"> F  </i>
   <i type="logical" name="LFERMIGW"> F  </i>
   <i type="logical" name="ODDONLYGW"> F  </i>
   <i type="logical" name="EVENONLYGW"> F  </i>
   <i type="int" name="NKREDLFX">     1</i>
   <i type="int" name="NKREDLFY">     1</i>
   <i type="int" name="NKREDLFZ">     1</i>
   <i type="int" name="MAXMEM">  2800</i>
   <i type="int" name="TELESCOPE">     0</i>
   <i type="int" name="TAUPAR">     1</i>
   <i type="int" name="OMEGAPAR">    -1</i>
   <i name="LAMBDA">      1.00000000</i>
  </separator>
  <separator name="External order field" >
   <i name="OFIELD_KAPPA">      0.00000000</i>
   <v name="OFIELD_K">      0.00000000      0.00000000      0.00000000</v>
   <i name="OFIELD_Q6_NEAR">      0.00000000</i>
   <i name="OFIELD_Q6_FAR">      0.00000000</i>
   <i name="OFIELD_A">      0.00000000</i>
  </separator>
 </parameters>
 <atominfo>
  <atoms>       2 </atoms>
  <types>       1 </types>
  <array name="atoms" >
   <dimension dim="1">ion</dimension>
   <field type="string">element</field>
   <field type="int">atomtype</field>
   <set>
    <rc><c>C </c><c>   1</c></rc>
    <rc><c>C </c><c>   1</c></rc>
   </set>
  </array>
  <array name="atomtypes" >
   <dimension dim="1">type</dimension>
   <field type="int">atomspertype</field>
   <field type="string">element</field>
   <field>mass</field>
   <field>valence</field>
   <field type="string">pseudopotential</field>
   <set>
    <rc><c>   2</c><c>C </c><c>     12.01100000</c><c>      4.00000000</c><c> PAW_PBE C 08Apr2002                    </c></rc>
   </set>
  </array>
 </atominfo>
 <structure name="initialpos" >
  <crystal>
   <varray name="basis" >
    <v>       1.27123312      -2.13771446       0.00000000 </v>
    <v>       1.27123312       2.13771446       0.00000000 </v>
    <v>       0.00000000       0.00000000      15.52239374 </v>
   </varray>
   <i name="volume">     84.36524741 </i>
   <varray name="rec_basis" >
    <v>       0.39331889      -0.23389466       0.00000000 </v>
    <v>       0.39331889       0.23389466       0.00000000 </v>
    <v>       0.00000000       0.00000000       0.06442305 </v>
   </varray>
  </crystal>
  <varray name="positions" >
   <v>       0.66666762       0.33333238       0.50000000 </v>
   <v>       0.33333238       0.66666762       0.50000000 </v>
  </varray>
 </structure>
 <calculation>
  <scstep>
   <time name="dav">    3.49    3.49</time>
   <time name="total">    3.51    3.51</time>
   <energy>
    <i name="alphaZ">      3.86320986 </i>
    <i name="ewald">    848.81615969 </i>
    <i name="hartreedc">  -1069.14583054 </i>
    <i name="XCdc">     27.34248546 </i>
    <i name="pawpsdc">     75.66288619 </i>
    <i name="pawaedc">    -77.96384553 </i>
    <i name="eentropy">     -0.00140785 </i>
    <i name="bandstr">    -63.25091449 </i>
    <i name="atom">    294.29778662 </i>
    <i name="e_fr_energy">     39.62052942 </i>
    <i name="e_wo_entrp">     39.62193727 </i>
    <i name="e_0_energy">     39.62123334 </i>
   </energy>
  </scstep>
  <scstep>
   <time name="dav">    3.98    3.99</time>
   <time name="total">    3.99    3.99</time>
   <energy>
    <i name="e_fr_energy">    -17.89132571 </i>
    <i name="e_wo_entrp">    -17.89068418 </i>
    <i name="e_0_energy">    -17.89100494 </i>
   </energy>
  </scstep>
  <scstep>
   <time name="dav">    3.91    3.92</time>
   <time name="total">    3.92    3.92</time>
   <energy>
    <i name="e_fr_energy">    -19.49659195 </i>
    <i name="e_wo_entrp">    -19.49588713 </i>
    <i name="e_0_energy">    -19.49623954 </i>
   </energy>
  </scstep>
  <scstep>
   <time name="dav">    3.86    3.86</time>
   <time name="total">    3.86    3.86</time>
   <energy>
    <i name="e_fr_energy">    -19.49924448 </i>
    <i name="e_wo_entrp">    -19.49853981 </i>
    <i name="e_0_energy">    -19.49889214 </i>
   </energy>
  </scstep>
  <scstep>
   <time name="dav">    3.83    3.83</time>
   <time name="total">    3.85    3.85</time>
   <energy>
    <i name="e_fr_energy">    -19.49925008 </i>
    <i name="e_wo_entrp">    -19.49854542 </i>
    <i name="e_0_energy">    -19.49889775 </i>
   </energy>
  </scstep>
  <scstep>
   <time name="dav">    4.00    4.00</time>
   <time name="total">    4.02    4.03</time>
   <energy>
    <i name="e_fr_energy">    -18.70274529 </i>
    <i name="e_wo_entrp">    -18.70215550 </i>
    <i name="e_0_energy">    -18.70245039 </i>
   </energy>
  </scstep>
  <scstep>
   <time name="dav">    3.84    3.84</time>
   <time name="total">    3.86    3.87</time>
   <energy>
    <i name="e_fr_energy">    -18.39929765 </i>
    <i name="e_wo_entrp">    -18.39882749 </i>
    <i name="e_0_energy">    -18.39906257 </i>
   </energy>
  </scstep>
  <scstep>
   <time name="dav">    3.91    3.91</time>
   <time name="total">    3.94    3.94</time>
   <energy>
    <i name="e_fr_energy">    -18.39188671 </i>
    <i name="e_wo_entrp">    -18.39139949 </i>
    <i name="e_0_energy">    -18.39164310 </i>
   </energy>
  </scstep>
  <scstep>
   <time name="dav">    3.91    3.92</time>
   <time name="total">    3.94    3.95</time>
   <energy>
    <i name="e_fr_energy">    -18.38976485 </i>
    <i name="e_wo_entrp">    -18.38928341 </i>
    <i name="e_0_energy">    -18.38952413 </i>
   </energy>
  </scstep>
  <scstep>
   <time name="dav">    3.86    3.86</time>
   <time name="total">    3.88    3.89</time>
   <energy>
    <i name="e_fr_energy">    -18.38957798 </i>
    <i name="e_wo_entrp">    -18.38910197 </i>
    <i name="e_0_energy">    -18.38933998 </i>
   </energy>
  </scstep>
  <scstep>
   <time name="dav">    3.86    3.87</time>
   <time name="total">    3.89    3.89</time>
   <energy>
    <i name="e_fr_energy">    -18.38915986 </i>
    <i name="e_wo_entrp">    -18.38868201 </i>
    <i name="e_0_energy">    -18.38892093 </i>
   </energy>
  </scstep>
  <scstep>
   <time name="dav">    3.71    3.71</time>
   <time name="total">    3.74    3.74</time>
   <energy>
    <i name="e_fr_energy">    -18.38989960 </i>
    <i name="e_wo_entrp">    -18.38941991 </i>
    <i name="e_0_energy">    -18.38965976 </i>
   </energy>
  </scstep>
  <scstep>
   <time name="dav">    3.76    3.76</time>
   <time name="total">    3.79    3.79</time>
   <energy>
    <i name="e_fr_energy">    -18.39044006 </i>
    <i name="e_wo_entrp">    -18.38996151 </i>
    <i name="e_0_energy">    -18.39020079 </i>
   </energy>
  </scstep>
  <scstep>
   <time name="dav">    3.81    3.82</time>
   <time name="total">    3.84    3.84</time>
   <energy>
    <i name="e_fr_energy">    -18.39050263 </i>
    <i name="e_wo_entrp">    -18.39002477 </i>
    <i name="e_0_energy">    -18.39026370 </i>
   </energy>
  </scstep>
  <scstep>
   <time name="dav">    3.83    3.83</time>
   <time name="total">    3.85    3.86</time>
   <energy>
    <i name="e_fr_energy">    -18.39058991 </i>
    <i name="e_wo_entrp">    -18.39011110 </i>
    <i name="e_0_energy">    -18.39035051 </i>
   </energy>
  </scstep>
  <scstep>
   <time name="dav">    3.88    3.88</time>
   <time name="total">    3.91    3.91</time>
   <energy>
    <i name="e_fr_energy">    -18.39060232 </i>
    <i name="e_wo_entrp">    -18.39012371 </i>
    <i name="e_0_energy">    -18.39036302 </i>
   </energy>
  </scstep>
  <scstep>
   <time name="dav">    3.88    3.88</time>
   <time name="total">    3.90    3.91</time>
   <energy>
    <i name="e_fr_energy">    -18.39060528 </i>
    <i name="e_wo_entrp">    -18.39012675 </i>
    <i name="e_0_energy">    -18.39036601 </i>
   </energy>
  </scstep>
  <scstep>
   <time name="dav">    3.76    3.76</time>
   <time name="total">    3.77    3.78</time>
   <energy>
    <i name="alphaZ">      3.86320986 </i>
    <i name="ewald">    848.81615969 </i>
    <i name="hartreedc">  -1099.83013290 </i>
    <i name="XCdc">     28.48058035 </i>
    <i name="pawpsdc">    132.74849013 </i>
    <i name="pawaedc">   -135.30736219 </i>
    <i name="eentropy">     -0.00047855 </i>
    <i name="bandstr">    -91.45885899 </i>
    <i name="atom">    294.29778662 </i>
    <i name="e_fr_energy">    -18.39060597 </i>
    <i name="e_wo_entrp">    -18.39012742 </i>
    <i name="e_0_energy">    -18.39036670 </i>
   </energy>
  </scstep>
  <structure>
   <crystal>
    <varray name="basis" >
     <v>       1.27123312      -2.13771446       0.00000000 </v>
     <v>       1.27123312       2.13771446       0.00000000 </v>
     <v>       0.00000000       0.00000000      15.52239374 </v>
    </varray>
    <i name="volume">     84.36524741 </i>
    <varray name="rec_basis" >
     <v>       0.39331889      -0.23389466       0.00000000 </v>
     <v>       0.39331889       0.23389466       0.00000000 </v>
     <v>       0.00000000       0.00000000       0.06442305 </v>
    </varray>
   </crystal>
   <varray name="positions" >
    <v>       0.66666762       0.33333238       0.50000000 </v>
    <v>       0.33333238       0.66666762       0.50000000 </v>
   </varray>
  </structure>
  <varray name="forces" >
   <v>       0.00000000      -0.30990845       0.00000000 </v>
   <v>       0.00000000       0.30990845       0.00000000 </v>
  </varray>
  <varray name="stress" >
   <v>     -64.17542729       0.00000000       0.00000000 </v>
   <v>       0.00000000      -8.64727110       0.00000000 </v>
   <v>       0.00000000       0.00000000      -0.19337351 </v>
  </varray>
  <energy>
   <i name="e_fr_energy">    -18.39060597 </i>
   <i name="e_wo_entrp">    -18.39036670 </i>
   <i name="e_0_energy">     -0.00047855 </i>
  </energy>
  <time name="totalsc">   70.08   70.15</time>
 </calculation>
 <calculation>
  <scstep>
   <time name="dav">    3.66    3.66</time>
   <time name="total">    3.69    3.69</time>
   <energy>
    <i name="alphaZ">      3.86320986 </i>
    <i name="ewald">    848.78154896 </i>
    <i name="hartreedc">  -1099.81502344 </i>
    <i name="XCdc">     28.47959317 </i>
    <i name="pawpsdc">    132.74844927 </i>
    <i name="pawaedc">   -135.30732086 </i>
    <i name="eentropy">     -0.00019954 </i>
    <i name="bandstr">    -91.43969915 </i>
    <i name="atom">    294.29778662 </i>
    <i name="e_fr_energy">    -18.39165509 </i>
    <i name="e_wo_entrp">    -18.39145555 </i>
    <i name="e_0_energy">    -18.39155532 </i>
   </energy>
  </scstep>
  <scstep>
   <time name="dav">    3.79    3.79</time>
   <time name="total">    3.82    3.82</time>
   <energy>
    <i name="e_fr_energy">    -18.39162535 </i>
    <i name="e_wo_entrp">    -18.39141762 </i>
    <i name="e_0_energy">    -18.39152148 </i>
   </energy>
  </scstep>
  <scstep>
   <time name="dav">    3.79    3.79</time>
   <time name="total">    3.82    3.82</time>
   <energy>
    <i name="e_fr_energy">    -18.39160251 </i>
    <i name="e_wo_entrp">    -18.39138543 </i>
    <i name="e_0_energy">    -18.39149397 </i>
   </energy>
  </scstep>
  <scstep>
   <time name="dav">    3.70    3.70</time>
   <time name="total">    3.71    3.72</time>
   <energy>
    <i name="alphaZ">      3.86320986 </i>
    <i name="ewald">    848.78154896 </i>
    <i name="hartreedc">  -1099.80302637 </i>
    <i name="XCdc">     28.47903174 </i>
    <i name="pawpsdc">    132.69100920 </i>
    <i name="pawaedc">   -135.24959956 </i>
    <i name="eentropy">     -0.00021636 </i>
    <i name="bandstr">    -91.45134658 </i>
    <i name="atom">    294.29778662 </i>
    <i name="e_fr_energy">    -18.39160249 </i>
    <i name="e_wo_entrp">    -18.39138613 </i>
    <i name="e_0_energy">    -18.39149431 </i>
   </energy>
  </scstep>
  <structure>
   <crystal>
    <varray name="basis" >
     <v>       1.27123312      -2.13771446       0.00000000 </v>
     <v>       1.27123312       2.13771446       0.00000000 </v>
     <v>       0.00000000       0.00000000      15.52239374 </v>
    </varray>
    <i name="volume">     84.36524741 </i>
    <varray name="rec_basis" >
     <v>       0.39331889      -0.23389466       0.00000000 </v>
     <v>       0.39331889       0.23389466       0.00000000 </v>
     <v>       0.00000000       0.00000000       0.06442305 </v>
    </varray>
   </crystal>
   <varray name="positions" >
    <v>       0.66736700       0.33263300       0.50000000 </v>
    <v>       0.33263300       0.66736700       0.50000000 </v>
   </varray>
  </structure>
  <varray name="forces" >
   <v>       0.00000000      -0.02171525      -0.00000000 </v>
   <v>       0.00000000       0.02171525       0.00000000 </v>
  </varray>
  <varray name="stress" >
   <v>     -63.64545341       0.00000000       0.00000000 </v>
   <v>       0.00000000      -9.88718471       0.00000000 </v>
   <v>       0.00000000       0.00000000      -0.19543806 </v>
  </varray>
  <energy>
   <i name="e_fr_energy">    -18.39160249 </i>
   <i name="e_wo_entrp">    -18.39149431 </i>
   <i name="e_0_energy">     -0.00021636 </i>
  </energy>
  <time name="totalsc">   15.64   15.66</time>
 </calculation>
 <calculation>
  <scstep>
   <time name="dav">    3.83    3.83</time>
   <time name="total">    3.85    3.86</time>
   <energy>
    <i name="alphaZ">      3.86320986 </i>
    <i name="ewald">    848.77923159 </i>
    <i name="hartreedc">  -1099.80146544 </i>
    <i name="XCdc">     28.47896702 </i>
    <i name="pawpsdc">    132.68939519 </i>
    <i name="pawaedc">   -135.24799800 </i>
    <i name="eentropy">     -0.00020012 </i>
    <i name="bandstr">    -91.45053428 </i>
    <i name="atom">    294.29778662 </i>
    <i name="e_fr_energy">    -18.39160756 </i>
    <i name="e_wo_entrp">    -18.39140744 </i>
    <i name="e_0_energy">    -18.39150750 </i>
   </energy>
  </scstep>
  <scstep>
   <time name="dav">    3.73    3.73</time>
   <time name="total">    3.74    3.75</time>
   <energy>
    <i name="alphaZ">      3.86320986 </i>
    <i name="ewald">    848.77923159 </i>
    <i name="hartreedc">  -1099.80085012 </i>
    <i name="XCdc">     28.47894343 </i>
    <i name="pawpsdc">    132.68753805 </i>
    <i name="pawaedc">   -135.24612712 </i>
    <i name="eentropy">     -0.00020069 </i>
    <i name="bandstr">    -91.45113907 </i>
    <i name="atom">    294.29778662 </i>
    <i name="e_fr_energy">    -18.39160744 </i>
    <i name="e_wo_entrp">    -18.39140675 </i>
    <i name="e_0_energy">    -18.39150710 </i>
   </energy>
  </scstep>
  <structure>
   <crystal>
    <varray name="basis" >
     <v>       1.27123312      -2.13771446       0.00000000 </v>
     <v>       1.27123312       2.13771446       0.00000000 </v>
     <v>       0.00000000       0.00000000      15.52239374 </v>
    </varray>
    <i name="volume">     84.36524741 </i>
    <varray name="rec_basis" >
     <v>       0.39331889      -0.23389466       0.00000000 </v>
     <v>       0.39331889       0.23389466       0.00000000 </v>
     <v>       0.00000000       0.00000000       0.06442305 </v>
    </varray>
   </crystal>
   <varray name="positions" >
    <v>       0.66741875       0.33258125       0.50000000 </v>
    <v>       0.33258125       0.66741875       0.50000000 </v>
   </varray>
  </structure>
  <varray name="forces" >
   <v>       0.00000000      -0.00115136      -0.00000000 </v>
   <v>       0.00000000       0.00115136       0.00000000 </v>
  </varray>
  <varray name="stress" >
   <v>     -63.65406929      -0.00000000       0.00000000 </v>
   <v>      -0.00000000      -9.92984000       0.00000000 </v>
   <v>       0.00000000       0.00000000      -0.20235583 </v>
  </varray>
  <energy>
   <i name="e_fr_energy">    -18.39160744 </i>
   <i name="e_wo_entrp">    -18.39150710 </i>
   <i name="e_0_energy">     -0.00020069 </i>
  </energy>
  <time name="totalsc">    7.99    8.00</time>
  <eigenvalues>
   <array>
    <dimension dim="1">band</dimension>
    <dimension dim="2">kpoint</dimension>
    <dimension dim="3">spin</dimension>
    <field>eigene</field>
    <field>occ</field>
    <set>
     <set comment="spin 1">
      <set comment="kpoint 1">
       <r>  -21.5497    1.0000 </r>
       <r>   -9.7010    1.0000 </r>
       <r>   -5.9176    1.0000 </r>
       <r>   -5.5423    1.0000 </r>
       <r>    1.0175    0.0000 </r>
       <r>    1.8956    0.0000 </r>
       <r>    2.4308    0.0000 </r>
       <r>    4.1435    0.0000 </r>
       <r>    4.8790    0.0000 </r>
       <r>    5.4300    0.0000 </r>
       <r>    5.9588    0.0000 </r>
       <r>    7.7717    0.0000 </r>
       <r>    8.1374    0.0000 </r>
       <r>    8.8264    0.0000 </r>
       <r>    9.1595    0.0000 </r>
       <r>   12.7280    0.0000 </r>
       <r>   14.1518    0.0000 </r>
       <r>   18.8278    0.0000 </r>
       <r>   19.6290    0.0000 </r>
       <r>   20.8187    0.0000 </r>
       <r>   24.0105    0.0000 </r>
       <r>   24.3569    0.0000 </r>
       <r>   25.8371    0.0000 </r>
       <r>   28.1814    0.0000 </r>
       <r>   28.7441    0.0000 </r>
       <r>   29.1477    0.0000 </r>
       <r>   29.4727    0.0000 </r>
       <r>   29.5233    0.0000 </r>
       <r>   30.6942    0.0000 </r>
       <r>   30.9213    0.0000 </r>
       <r>   30.9715    0.0000 </r>
       <r>   31.0237    0.0000 </r>
       <r>   31.2177    0.0000 </r>
       <r>   32.7959    0.0000 </r>
       <r>   32.9876    0.0000 </r>
       <r>   33.0799    0.0000 </r>
       <r>   33.3188    0.0000 </r>
       <r>   33.5633    0.0000 </r>
       <r>   33.6780    0.0000 </r>
       <r>   34.7950    0.0000 </r>
       <r>   34.8871    0.0000 </r>
       <r>   34.9813    0.0000 </r>
       <r>   35.0339    0.0000 </r>
       <r>   35.2642    0.0000 </r>
       <r>   35.4478    0.0000 </r>
       <r>   35.9672    0.0000 </r>
       <r>   36.0192    0.0000 </r>
       <r>   36.6754    0.0000 </r>
       <r>   36.6781    0.0000 </r>
       <r>   36.7080    0.0000 </r>
       <r>   36.9239    0.0000 </r>
       <r>   36.9794    0.0000 </r>
       <r>   36.9867    0.0000 </r>
       <r>   37.3186    0.0000 </r>
       <r>   37.5378    0.0000 </r>
       <r>   37.5874    0.0000 </r>
       <r>   37.7781    0.0000 </r>
       <r>   37.9449    0.0000 </r>
       <r>   38.0902    0.0000 </r>
       <r>   38.6748    0.0000 </r>
       <r>   38.8950    0.0000 </r>
       <r>   39.0857    0.0000 </r>
       <r>   39.3155    0.0000 </r>
       <r>   40.5292    0.0000 </r>
       <r>   40.9858    0.0000 </r>
       <r>   41.2089    0.0000 </r>
       <r>   41.3924    0.0000 </r>
       <r>   41.5977    0.0000 </r>
       <r>   42.1269    0.0000 </r>
       <r>   42.1529    0.0000 </r>
       <r>   42.5270    0.0000 </r>
       <r>   42.6434    0.0000 </r>
       <r>   42.7710    0.0000 </r>
       <r>   43.1735    0.0000 </r>
       <r>   43.3424    0.0000 </r>
       <r>   45.3513    0.0000 </r>
       <r>   45.3571    0.0000 </r>
       <r>   45.7566    0.0000 </r>
       <r>   45.7840    0.0000 </r>
       <r>   46.5671    0.0000 </r>
       <r>   47.1571    0.0000 </r>
       <r>   47.7229    0.0000 </r>
       <r>   47.8296    0.0000 </r>
       <r>   48.3003    0.0000 </r>
       <r>   48.4752    0.0000 </r>
       <r>   48.5258    0.0000 </r>
       <r>   48.8835    0.0000 </r>
       <r>   49.3531    0.0000 </r>
       <r>   49.6868    0.0000 </r>
       <r>   49.9927    0.0000 </r>
       <r>   50.2694    0.0000 </r>
       <r>   52.3047    0.0000 </r>
       <r>   53.1816    0.0000 </r>
       <r>   53.2008    0.0000 </r>
       <r>   54.1408    0.0000 </r>
       <r>   54.5043    0.0000 </r>
       <r>   54.7833    0.0000 </r>
       <r>   54.9060    0.0000 </r>
       <r>   55.8901    0.0000 </r>
       <r>   56.1464    0.0000 </r>
       <r>   56.6856    0.0000 </r>
       <r>   57.1311    0.0000 </r>
       <r>   57.6005    0.0000 </r>
       <r>   58.8293    0.0000 </r>
       <r>   59.9110    0.0000 </r>
       <r>   60.1651    0.0000 </r>
       <r>   61.1292    0.0000 </r>
       <r>   61.4739    0.0000 </r>
       <r>   61.8255    0.0000 </r>
       <r>   62.4562    0.0000 </r>
       <r>   62.6275    0.0000 </r>
       <r>   63.1955    0.0000 </r>
       <r>   63.7611    0.0000 </r>
       <r>   65.1192    0.0000 </r>
       <r>   65.2528    0.0000 </r>
       <r>   66.0204    0.0000 </r>
       <r>   66.0295    0.0000 </r>
       <r>   67.0747    0.0000 </r>
       <r>   69.0705    0.0000 </r>
       <r>   69.1469    0.0000 </r>
       <r>   69.3184    0.0000 </r>
       <r>   70.0112    0.0000 </r>
       <r>   71.2342    0.0000 </r>
       <r>   71.2448    0.0000 </r>
       <r>   71.6821    0.0000 </r>
       <r>   71.7751    0.0000 </r>
       <r>   72.0079    0.0000 </r>
       <r>   73.3365    0.0000 </r>
      </set>
      <set comment="kpoint 2">
       <r>  -21.3312    1.0000 </r>
       <r>   -9.4432    1.0000 </r>
       <r>   -6.7176    1.0000 </r>
       <r>   -6.0087    1.0000 </r>
       <r>    1.3137    0.0000 </r>
       <r>    2.1941    0.0000 </r>
       <r>    2.7331    0.0000 </r>
       <r>    4.4404    0.0000 </r>
       <r>    5.1642    0.0000 </r>
       <r>    5.6643    0.0000 </r>
       <r>    6.8257    0.0000 </r>
       <r>    7.4159    0.0000 </r>
       <r>    8.0605    0.0000 </r>
       <r>    9.1241    0.0000 </r>
       <r>    9.5133    0.0000 </r>
       <r>   12.9911    0.0000 </r>
       <r>   14.4438    0.0000 </r>
       <r>   18.9256    0.0000 </r>
       <r>   20.1607    0.0000 </r>
       <r>   21.1267    0.0000 </r>
       <r>   22.0721    0.0000 </r>
       <r>   23.5175    0.0000 </r>
       <r>   25.9228    0.0000 </r>
       <r>   26.0296    0.0000 </r>
       <r>   27.3298    0.0000 </r>
       <r>   27.3480    0.0000 </r>
       <r>   27.8837    0.0000 </r>
       <r>   28.2838    0.0000 </r>
       <r>   29.0239    0.0000 </r>
       <r>   29.3806    0.0000 </r>
       <r>   29.4256    0.0000 </r>
       <r>   29.7348    0.0000 </r>
       <r>   29.7583    0.0000 </r>
       <r>   31.1058    0.0000 </r>
       <r>   31.4553    0.0000 </r>
       <r>   31.7156    0.0000 </r>
       <r>   32.1714    0.0000 </r>
       <r>   33.1998    0.0000 </r>
       <r>   33.4517    0.0000 </r>
       <r>   33.4521    0.0000 </r>
       <r>   33.5788    0.0000 </r>
       <r>   33.8148    0.0000 </r>
       <r>   35.3297    0.0000 </r>
       <r>   35.3436    0.0000 </r>
       <r>   35.7253    0.0000 </r>
       <r>   35.7651    0.0000 </r>
       <r>   35.9908    0.0000 </r>
       <r>   36.7223    0.0000 </r>
       <r>   36.9058    0.0000 </r>
       <r>   37.5831    0.0000 </r>
       <r>   37.7511    0.0000 </r>
       <r>   37.9746    0.0000 </r>
       <r>   38.2173    0.0000 </r>
       <r>   38.6285    0.0000 </r>
       <r>   38.8008    0.0000 </r>
       <r>   38.8969    0.0000 </r>
       <r>   38.9951    0.0000 </r>
       <r>   39.4780    0.0000 </r>
       <r>   39.6621    0.0000 </r>
       <r>   39.8719    0.0000 </r>
       <r>   39.9411    0.0000 </r>
       <r>   40.6034    0.0000 </r>
       <r>   40.7010    0.0000 </r>
       <r>   40.9270    0.0000 </r>
       <r>   40.9591    0.0000 </r>
       <r>   41.2627    0.0000 </r>
       <r>   41.3058    0.0000 </r>
       <r>   42.5056    0.0000 </r>
       <r>   42.8901    0.0000 </r>
       <r>   43.1718    0.0000 </r>
       <r>   43.5763    0.0000 </r>
       <r>   43.7005    0.0000 </r>
       <r>   44.1917    0.0000 </r>
       <r>   44.6345    0.0000 </r>
       <r>   44.9273    0.0000 </r>
       <r>   45.3288    0.0000 </r>
       <r>   45.4470    0.0000 </r>
       <r>   45.7044    0.0000 </r>
       <r>   46.3233    0.0000 </r>
       <r>   46.9736    0.0000 </r>
       <r>   47.3760    0.0000 </r>
       <r>   47.7214    0.0000 </r>
       <r>   47.7960    0.0000 </r>
       <r>   47.8635    0.0000 </r>
       <r>   48.9536    0.0000 </r>
       <r>   49.2935    0.0000 </r>
       <r>   49.8784    0.0000 </r>
       <r>   49.9816    0.0000 </r>
       <r>   50.6877    0.0000 </r>
       <r>   51.4082    0.0000 </r>
       <r>   52.1474    0.0000 </r>
       <r>   52.3729    0.0000 </r>
       <r>   52.8870    0.0000 </r>
       <r>   52.9153    0.0000 </r>
       <r>   53.9112    0.0000 </r>
       <r>   54.7638    0.0000 </r>
       <r>   55.3907    0.0000 </r>
       <r>   55.4015    0.0000 </r>
       <r>   56.3473    0.0000 </r>
       <r>   56.7147    0.0000 </r>
       <r>   57.2694    0.0000 </r>
       <r>   57.8199    0.0000 </r>
       <r>   59.3846    0.0000 </r>
       <r>   59.4140    0.0000 </r>
       <r>   59.6699    0.0000 </r>
       <r>   59.7466    0.0000 </r>
       <r>   60.4296    0.0000 </r>
       <r>   61.9351    0.0000 </r>
       <r>   62.6656    0.0000 </r>
       <r>   63.3222    0.0000 </r>
       <r>   63.5006    0.0000 </r>
       <r>   63.7245    0.0000 </r>
       <r>   64.3428    0.0000 </r>
       <r>   64.7213    0.0000 </r>
       <r>   64.7397    0.0000 </r>
       <r>   65.6464    0.0000 </r>
       <r>   66.6736    0.0000 </r>
       <r>   67.3272    0.0000 </r>
       <r>   68.2101    0.0000 </r>
       <r>   68.8188    0.0000 </r>
       <r>   69.6493    0.0000 </r>
       <r>   70.1466    0.0000 </r>
       <r>   72.1863    0.0000 </r>
       <r>   72.2968    0.0000 </r>
       <r>   72.9256    0.0000 </r>
       <r>   73.0935    0.0000 </r>
       <r>   73.4578    0.0000 </r>
       <r>   73.9444    0.0000 </r>
      </set>
      <set comment="kpoint 3">
       <r>  -20.9376    1.0000 </r>
       <r>   -8.9818    1.0000 </r>
       <r>   -7.9849    1.0000 </r>
       <r>   -6.6249    1.0000 </r>
       <r>    1.8492    0.0000 </r>
       <r>    2.7321    0.0000 </r>
       <r>    3.2794    0.0000 </r>
       <r>    4.9728    0.0000 </r>
       <r>    5.6070    0.0000 </r>
       <r>    5.8488    0.0000 </r>
       <r>    6.2552    0.0000 </r>
       <r>    8.1894    0.0000 </r>
       <r>    8.5789    0.0000 </r>
       <r>    9.6558    0.0000 </r>
       <r>   10.3010    0.0000 </r>
       <r>   13.4484    0.0000 </r>
       <r>   14.9662    0.0000 </r>
       <r>   18.6354    0.0000 </r>
       <r>   20.6656    0.0000 </r>
       <r>   20.7667    0.0000 </r>
       <r>   21.6849    0.0000 </r>
       <r>   22.3053    0.0000 </r>
       <r>   22.9864    0.0000 </r>
       <r>   24.0681    0.0000 </r>
       <r>   24.0771    0.0000 </r>
       <r>   25.9213    0.0000 </r>
       <r>   26.3566    0.0000 </r>
       <r>   26.7558    0.0000 </r>
       <r>   27.1178    0.0000 </r>
       <r>   27.6440    0.0000 </r>
       <r>   28.0707    0.0000 </r>
       <r>   29.0148    0.0000 </r>
       <r>   29.5240    0.0000 </r>
       <r>   30.0637    0.0000 </r>
       <r>   30.2683    0.0000 </r>
       <r>   30.3367    0.0000 </r>
       <r>   30.6993    0.0000 </r>
       <r>   30.9442    0.0000 </r>
       <r>   31.9592    0.0000 </r>
       <r>   32.0478    0.0000 </r>
       <r>   33.3931    0.0000 </r>
       <r>   33.9695    0.0000 </r>
       <r>   33.9783    0.0000 </r>
       <r>   34.5498    0.0000 </r>
       <r>   34.6805    0.0000 </r>
       <r>   35.1330    0.0000 </r>
       <r>   35.4757    0.0000 </r>
       <r>   36.2651    0.0000 </r>
       <r>   37.8156    0.0000 </r>
       <r>   38.0289    0.0000 </r>
       <r>   38.1673    0.0000 </r>
       <r>   38.2861    0.0000 </r>
       <r>   38.7124    0.0000 </r>
       <r>   39.1771    0.0000 </r>
       <r>   39.3475    0.0000 </r>
       <r>   39.7039    0.0000 </r>
       <r>   40.1838    0.0000 </r>
       <r>   40.3280    0.0000 </r>
       <r>   40.9013    0.0000 </r>
       <r>   41.2093    0.0000 </r>
       <r>   41.3760    0.0000 </r>
       <r>   41.6428    0.0000 </r>
       <r>   41.9169    0.0000 </r>
       <r>   42.3851    0.0000 </r>
       <r>   42.4955    0.0000 </r>
       <r>   43.0669    0.0000 </r>
       <r>   43.1474    0.0000 </r>
       <r>   43.4420    0.0000 </r>
       <r>   43.6867    0.0000 </r>
       <r>   44.7523    0.0000 </r>
       <r>   45.0041    0.0000 </r>
       <r>   45.0324    0.0000 </r>
       <r>   45.6250    0.0000 </r>
       <r>   45.6898    0.0000 </r>
       <r>   45.9743    0.0000 </r>
       <r>   46.2425    0.0000 </r>
       <r>   46.9699    0.0000 </r>
       <r>   47.1633    0.0000 </r>
       <r>   47.4458    0.0000 </r>
       <r>   47.9939    0.0000 </r>
       <r>   48.3557    0.0000 </r>
       <r>   48.4444    0.0000 </r>
       <r>   49.0389    0.0000 </r>
       <r>   49.3550    0.0000 </r>
       <r>   50.0173    0.0000 </r>
       <r>   50.6108    0.0000 </r>
       <r>   50.7676    0.0000 </r>
       <r>   51.0852    0.0000 </r>
       <r>   51.5798    0.0000 </r>
       <r>   51.9907    0.0000 </r>
       <r>   52.4423    0.0000 </r>
       <r>   52.8244    0.0000 </r>
       <r>   53.2358    0.0000 </r>
       <r>   53.6009    0.0000 </r>
       <r>   54.4076    0.0000 </r>
       <r>   56.3059    0.0000 </r>
       <r>   56.8316    0.0000 </r>
       <r>   56.8643    0.0000 </r>
       <r>   57.5359    0.0000 </r>
       <r>   57.9969    0.0000 </r>
       <r>   58.7079    0.0000 </r>
       <r>   58.7751    0.0000 </r>
       <r>   59.1736    0.0000 </r>
       <r>   59.5128    0.0000 </r>
       <r>   59.7730    0.0000 </r>
       <r>   60.3291    0.0000 </r>
       <r>   61.1020    0.0000 </r>
       <r>   61.9887    0.0000 </r>
       <r>   62.6372    0.0000 </r>
       <r>   63.5954    0.0000 </r>
       <r>   63.6087    0.0000 </r>
       <r>   63.7581    0.0000 </r>
       <r>   65.4374    0.0000 </r>
       <r>   66.2426    0.0000 </r>
       <r>   66.3095    0.0000 </r>
       <r>   66.6050    0.0000 </r>
       <r>   67.1402    0.0000 </r>
       <r>   68.0703    0.0000 </r>
       <r>   68.3096    0.0000 </r>
       <r>   69.8228    0.0000 </r>
       <r>   69.9882    0.0000 </r>
       <r>   70.8357    0.0000 </r>
       <r>   71.1730    0.0000 </r>
       <r>   71.9404    0.0000 </r>
       <r>   72.8183    0.0000 </r>
       <r>   73.1049    0.0000 </r>
       <r>   73.4525    0.0000 </r>
       <r>   73.8617    0.0000 </r>
      </set>
      <set comment="kpoint 4">
       <r>  -20.3721    1.0000 </r>
       <r>   -9.4973    1.0000 </r>
       <r>   -8.3258    1.0000 </r>
       <r>   -7.2519    1.0000 </r>
       <r>    2.6229    0.0000 </r>
       <r>    3.4981    0.0000 </r>
       <r>    4.0691    0.0000 </r>
       <r>    4.7839    0.0000 </r>
       <r>    5.5903    0.0000 </r>
       <r>    5.7680    0.0000 </r>
       <r>    6.5178    0.0000 </r>
       <r>    9.3206    0.0000 </r>
       <r>    9.9215    0.0000 </r>
       <r>   10.4217    0.0000 </r>
       <r>   11.3847    0.0000 </r>
       <r>   14.0412    0.0000 </r>
       <r>   15.7108    0.0000 </r>
       <r>   17.4788    0.0000 </r>
       <r>   19.2833    0.0000 </r>
       <r>   20.2586    0.0000 </r>
       <r>   20.7542    0.0000 </r>
       <r>   21.0908    0.0000 </r>
       <r>   21.6377    0.0000 </r>
       <r>   21.8600    0.0000 </r>
       <r>   22.6906    0.0000 </r>
       <r>   23.5174    0.0000 </r>
       <r>   23.8356    0.0000 </r>
       <r>   25.6195    0.0000 </r>
       <r>   26.1582    0.0000 </r>
       <r>   26.8622    0.0000 </r>
       <r>   26.9761    0.0000 </r>
       <r>   27.4476    0.0000 </r>
       <r>   28.5077    0.0000 </r>
       <r>   28.5499    0.0000 </r>
       <r>   28.9050    0.0000 </r>
       <r>   29.6922    0.0000 </r>
       <r>   30.0423    0.0000 </r>
       <r>   30.3441    0.0000 </r>
       <r>   30.8111    0.0000 </r>
       <r>   31.1731    0.0000 </r>
       <r>   32.5641    0.0000 </r>
       <r>   32.6628    0.0000 </r>
       <r>   32.7956    0.0000 </r>
       <r>   33.0035    0.0000 </r>
       <r>   33.6358    0.0000 </r>
       <r>   33.6765    0.0000 </r>
       <r>   35.9749    0.0000 </r>
       <r>   36.5651    0.0000 </r>
       <r>   36.6877    0.0000 </r>
       <r>   37.7231    0.0000 </r>
       <r>   38.0068    0.0000 </r>
       <r>   38.2156    0.0000 </r>
       <r>   38.4530    0.0000 </r>
       <r>   39.1254    0.0000 </r>
       <r>   39.4748    0.0000 </r>
       <r>   39.5426    0.0000 </r>
       <r>   41.1009    0.0000 </r>
       <r>   41.6441    0.0000 </r>
       <r>   41.9817    0.0000 </r>
       <r>   42.4310    0.0000 </r>
       <r>   42.5313    0.0000 </r>
       <r>   43.0541    0.0000 </r>
       <r>   43.2382    0.0000 </r>
       <r>   43.5768    0.0000 </r>
       <r>   44.0122    0.0000 </r>
       <r>   44.1689    0.0000 </r>
       <r>   44.5606    0.0000 </r>
       <r>   45.1484    0.0000 </r>
       <r>   45.2031    0.0000 </r>
       <r>   45.7087    0.0000 </r>
       <r>   45.8630    0.0000 </r>
       <r>   46.5123    0.0000 </r>
       <r>   46.5729    0.0000 </r>
       <r>   47.2328    0.0000 </r>
       <r>   47.8042    0.0000 </r>
       <r>   48.5916    0.0000 </r>
       <r>   48.7690    0.0000 </r>
       <r>   49.0072    0.0000 </r>
       <r>   49.5787    0.0000 </r>
       <r>   49.6678    0.0000 </r>
       <r>   50.0220    0.0000 </r>
       <r>   50.1033    0.0000 </r>
       <r>   50.5054    0.0000 </r>
       <r>   50.5925    0.0000 </r>
       <r>   50.6197    0.0000 </r>
       <r>   52.0410    0.0000 </r>
       <r>   52.6290    0.0000 </r>
       <r>   52.6842    0.0000 </r>
       <r>   53.1559    0.0000 </r>
       <r>   54.0793    0.0000 </r>
       <r>   54.5668    0.0000 </r>
       <r>   55.0032    0.0000 </r>
       <r>   55.2227    0.0000 </r>
       <r>   55.7106    0.0000 </r>
       <r>   56.0421    0.0000 </r>
       <r>   56.3517    0.0000 </r>
       <r>   56.6584    0.0000 </r>
       <r>   56.7561    0.0000 </r>
       <r>   57.1200    0.0000 </r>
       <r>   59.3461    0.0000 </r>
       <r>   60.0665    0.0000 </r>
       <r>   60.1765    0.0000 </r>
       <r>   60.5948    0.0000 </r>
       <r>   61.5072    0.0000 </r>
       <r>   61.7379    0.0000 </r>
       <r>   61.8269    0.0000 </r>
       <r>   62.0609    0.0000 </r>
       <r>   62.6979    0.0000 </r>
       <r>   62.7823    0.0000 </r>
       <r>   63.3190    0.0000 </r>
       <r>   64.1772    0.0000 </r>
       <r>   65.0377    0.0000 </r>
       <r>   65.9825    0.0000 </r>
       <r>   66.4398    0.0000 </r>
       <r>   66.9919    0.0000 </r>
       <r>   66.9936    0.0000 </r>
       <r>   67.8076    0.0000 </r>
       <r>   68.9391    0.0000 </r>
       <r>   69.1315    0.0000 </r>
       <r>   69.7846    0.0000 </r>
       <r>   69.9159    0.0000 </r>
       <r>   70.7593    0.0000 </r>
       <r>   70.9156    0.0000 </r>
       <r>   72.2916    0.0000 </r>
       <r>   72.3921    0.0000 </r>
       <r>   72.7153    0.0000 </r>
       <r>   73.7112    0.0000 </r>
       <r>   73.7509    0.0000 </r>
      </set>
      <set comment="kpoint 5">
       <r>  -19.6400    1.0000 </r>
       <r>  -11.0922    1.0000 </r>
       <r>   -7.8077    1.0000 </r>
       <r>   -7.4938    1.0000 </r>
       <r>    3.1317    0.0000 </r>
       <r>    3.6315    0.0000 </r>
       <r>    4.5598    0.0000 </r>
       <r>    5.0913    0.0000 </r>
       <r>    5.3934    0.0000 </r>
       <r>    6.7695    0.0000 </r>
       <r>    7.5220    0.0000 </r>
       <r>   10.2695    0.0000 </r>
       <r>   11.3996    0.0000 </r>
       <r>   11.8673    0.0000 </r>
       <r>   12.4005    0.0000 </r>
       <r>   14.4915    0.0000 </r>
       <r>   16.2826    0.0000 </r>
       <r>   16.6208    0.0000 </r>
       <r>   16.9057    0.0000 </r>
       <r>   18.0258    0.0000 </r>
       <r>   18.2217    0.0000 </r>
       <r>   19.8875    0.0000 </r>
       <r>   20.3498    0.0000 </r>
       <r>   20.7544    0.0000 </r>
       <r>   22.1373    0.0000 </r>
       <r>   22.4422    0.0000 </r>
       <r>   23.7669    0.0000 </r>
       <r>   24.3612    0.0000 </r>
       <r>   24.4825    0.0000 </r>
       <r>   25.4809    0.0000 </r>
       <r>   25.8326    0.0000 </r>
       <r>   26.1873    0.0000 </r>
       <r>   27.5680    0.0000 </r>
       <r>   27.9476    0.0000 </r>
       <r>   28.4363    0.0000 </r>
       <r>   28.7721    0.0000 </r>
       <r>   29.3290    0.0000 </r>
       <r>   29.7218    0.0000 </r>
       <r>   29.9968    0.0000 </r>
       <r>   30.3319    0.0000 </r>
       <r>   31.1740    0.0000 </r>
       <r>   31.3927    0.0000 </r>
       <r>   31.8221    0.0000 </r>
       <r>   32.1136    0.0000 </r>
       <r>   32.7789    0.0000 </r>
       <r>   33.7541    0.0000 </r>
       <r>   35.5268    0.0000 </r>
       <r>   35.8379    0.0000 </r>
       <r>   36.4004    0.0000 </r>
       <r>   36.4616    0.0000 </r>
       <r>   37.1679    0.0000 </r>
       <r>   37.4165    0.0000 </r>
       <r>   37.9406    0.0000 </r>
       <r>   39.1059    0.0000 </r>
       <r>   39.5160    0.0000 </r>
       <r>   39.6466    0.0000 </r>
       <r>   41.4061    0.0000 </r>
       <r>   41.4520    0.0000 </r>
       <r>   41.9064    0.0000 </r>
       <r>   43.0657    0.0000 </r>
       <r>   44.1432    0.0000 </r>
       <r>   44.1852    0.0000 </r>
       <r>   44.3343    0.0000 </r>
       <r>   45.2111    0.0000 </r>
       <r>   45.4979    0.0000 </r>
       <r>   45.7165    0.0000 </r>
       <r>   46.2772    0.0000 </r>
       <r>   46.3146    0.0000 </r>
       <r>   46.9653    0.0000 </r>
       <r>   46.9667    0.0000 </r>
       <r>   47.8072    0.0000 </r>
       <r>   48.0072    0.0000 </r>
       <r>   48.2798    0.0000 </r>
       <r>   48.5255    0.0000 </r>
       <r>   48.9710    0.0000 </r>
       <r>   49.2929    0.0000 </r>
       <r>   50.0951    0.0000 </r>
       <r>   51.0498    0.0000 </r>
       <r>   51.2850    0.0000 </r>
       <r>   51.8404    0.0000 </r>
       <r>   52.2690    0.0000 </r>
       <r>   52.5909    0.0000 </r>
       <r>   52.9012    0.0000 </r>
       <r>   52.9053    0.0000 </r>
       <r>   53.2372    0.0000 </r>
       <r>   53.7264    0.0000 </r>
       <r>   54.0013    0.0000 </r>
       <r>   54.9164    0.0000 </r>
       <r>   55.2174    0.0000 </r>
       <r>   55.3211    0.0000 </r>
       <r>   55.8374    0.0000 </r>
       <r>   56.7986    0.0000 </r>
       <r>   56.8506    0.0000 </r>
       <r>   57.4485    0.0000 </r>
       <r>   57.5405    0.0000 </r>
       <r>   58.1869    0.0000 </r>
       <r>   58.2481    0.0000 </r>
       <r>   58.6924    0.0000 </r>
       <r>   60.3320    0.0000 </r>
       <r>   60.5995    0.0000 </r>
       <r>   61.0218    0.0000 </r>
       <r>   61.3635    0.0000 </r>
       <r>   61.5362    0.0000 </r>
       <r>   62.0933    0.0000 </r>
       <r>   62.6644    0.0000 </r>
       <r>   63.2148    0.0000 </r>
       <r>   63.2903    0.0000 </r>
       <r>   63.8432    0.0000 </r>
       <r>   64.1903    0.0000 </r>
       <r>   64.7422    0.0000 </r>
       <r>   64.7632    0.0000 </r>
       <r>   65.1269    0.0000 </r>
       <r>   65.3859    0.0000 </r>
       <r>   66.3008    0.0000 </r>
       <r>   66.6863    0.0000 </r>
       <r>   67.1769    0.0000 </r>
       <r>   67.3057    0.0000 </r>
       <r>   67.8964    0.0000 </r>
       <r>   68.9109    0.0000 </r>
       <r>   69.0586    0.0000 </r>
       <r>   70.2044    0.0000 </r>
       <r>   70.8942    0.0000 </r>
       <r>   70.9578    0.0000 </r>
       <r>   71.2502    0.0000 </r>
       <r>   71.8707    0.0000 </r>
       <r>   72.5025    0.0000 </r>
       <r>   72.6936    0.0000 </r>
       <r>   72.8801    0.0000 </r>
      </set>
      <set comment="kpoint 6">
       <r>  -18.7514    1.0000 </r>
       <r>  -12.6672    1.0000 </r>
       <r>   -8.2424    1.0000 </r>
       <r>   -6.5266    1.0000 </r>
       <r>    1.5225    0.0000 </r>
       <r>    4.8423    0.0000 </r>
       <r>    5.1924    0.0000 </r>
       <r>    5.7979    0.0000 </r>
       <r>    6.3882    0.0000 </r>
       <r>    8.0055    0.0000 </r>
       <r>    8.7669    0.0000 </r>
       <r>   11.3726    0.0000 </r>
       <r>   12.3815    0.0000 </r>
       <r>   12.6621    0.0000 </r>
       <r>   13.7449    0.0000 </r>
       <r>   13.8100    0.0000 </r>
       <r>   14.8973    0.0000 </r>
       <r>   15.4884    0.0000 </r>
       <r>   15.8532    0.0000 </r>
       <r>   16.7280    0.0000 </r>
       <r>   17.7268    0.0000 </r>
       <r>   18.2391    0.0000 </r>
       <r>   18.3664    0.0000 </r>
       <r>   19.8610    0.0000 </r>
       <r>   21.3922    0.0000 </r>
       <r>   21.5053    0.0000 </r>
       <r>   23.1481    0.0000 </r>
       <r>   23.6625    0.0000 </r>
       <r>   24.0362    0.0000 </r>
       <r>   25.1264    0.0000 </r>
       <r>   25.4175    0.0000 </r>
       <r>   25.6934    0.0000 </r>
       <r>   26.3271    0.0000 </r>
       <r>   27.1503    0.0000 </r>
       <r>   27.5268    0.0000 </r>
       <r>   27.6307    0.0000 </r>
       <r>   28.2768    0.0000 </r>
       <r>   28.6850    0.0000 </r>
       <r>   29.0146    0.0000 </r>
       <r>   30.3542    0.0000 </r>
       <r>   30.5910    0.0000 </r>
       <r>   31.0310    0.0000 </r>
       <r>   31.4464    0.0000 </r>
       <r>   31.8870    0.0000 </r>
       <r>   32.8527    0.0000 </r>
       <r>   33.1418    0.0000 </r>
       <r>   34.0187    0.0000 </r>
       <r>   34.4514    0.0000 </r>
       <r>   34.7183    0.0000 </r>
       <r>   36.1077    0.0000 </r>
       <r>   36.2207    0.0000 </r>
       <r>   37.2973    0.0000 </r>
       <r>   37.5457    0.0000 </r>
       <r>   39.3564    0.0000 </r>
       <r>   40.3574    0.0000 </r>
       <r>   40.8746    0.0000 </r>
       <r>   41.2287    0.0000 </r>
       <r>   41.5598    0.0000 </r>
       <r>   41.7002    0.0000 </r>
       <r>   42.6576    0.0000 </r>
       <r>   43.1264    0.0000 </r>
       <r>   43.7715    0.0000 </r>
       <r>   43.9298    0.0000 </r>
       <r>   46.4236    0.0000 </r>
       <r>   47.0497    0.0000 </r>
       <r>   47.9129    0.0000 </r>
       <r>   48.4040    0.0000 </r>
       <r>   48.4992    0.0000 </r>
       <r>   49.1391    0.0000 </r>
       <r>   49.5062    0.0000 </r>
       <r>   49.7332    0.0000 </r>
       <r>   50.1014    0.0000 </r>
       <r>   50.1164    0.0000 </r>
       <r>   50.8734    0.0000 </r>
       <r>   51.3268    0.0000 </r>
       <r>   51.4683    0.0000 </r>
       <r>   52.0799    0.0000 </r>
       <r>   52.0844    0.0000 </r>
       <r>   52.1583    0.0000 </r>
       <r>   52.3017    0.0000 </r>
       <r>   52.7366    0.0000 </r>
       <r>   53.4348    0.0000 </r>
       <r>   54.3718    0.0000 </r>
       <r>   54.5589    0.0000 </r>
       <r>   55.1792    0.0000 </r>
       <r>   55.2380    0.0000 </r>
       <r>   55.7862    0.0000 </r>
       <r>   55.9787    0.0000 </r>
       <r>   56.4221    0.0000 </r>
       <r>   57.6426    0.0000 </r>
       <r>   58.8635    0.0000 </r>
       <r>   59.2040    0.0000 </r>
       <r>   59.4539    0.0000 </r>
       <r>   59.9997    0.0000 </r>
       <r>   60.4280    0.0000 </r>
       <r>   60.4422    0.0000 </r>
       <r>   60.8971    0.0000 </r>
       <r>   60.9669    0.0000 </r>
       <r>   61.0767    0.0000 </r>
       <r>   61.6028    0.0000 </r>
       <r>   61.8729    0.0000 </r>
       <r>   61.9877    0.0000 </r>
       <r>   62.6945    0.0000 </r>
       <r>   62.7045    0.0000 </r>
       <r>   63.1728    0.0000 </r>
       <r>   63.3458    0.0000 </r>
       <r>   63.6887    0.0000 </r>
       <r>   64.1023    0.0000 </r>
       <r>   64.3967    0.0000 </r>
       <r>   64.4625    0.0000 </r>
       <r>   64.5676    0.0000 </r>
       <r>   64.7814    0.0000 </r>
       <r>   66.2386    0.0000 </r>
       <r>   66.6450    0.0000 </r>
       <r>   66.7368    0.0000 </r>
       <r>   66.8999    0.0000 </r>
       <r>   67.4446    0.0000 </r>
       <r>   68.0363    0.0000 </r>
       <r>   68.2054    0.0000 </r>
       <r>   68.3612    0.0000 </r>
       <r>   69.4425    0.0000 </r>
       <r>   69.6363    0.0000 </r>
       <r>   70.3635    0.0000 </r>
       <r>   70.4876    0.0000 </r>
       <r>   70.7388    0.0000 </r>
       <r>   70.8723    0.0000 </r>
       <r>   71.0359    0.0000 </r>
       <r>   71.8183    0.0000 </r>
      </set>
      <set comment="kpoint 7">
       <r>  -17.7350    1.0000 </r>
       <r>  -14.1421    1.0000 </r>
       <r>   -8.5270    1.0000 </r>
       <r>   -5.5341    1.0000 </r>
       <r>    0.0794    0.0000 </r>
       <r>    4.9824    0.0000 </r>
       <r>    6.3650    0.0000 </r>
       <r>    7.2715    0.0000 </r>
       <r>    7.9055    0.0000 </r>
       <r>    9.4506    0.0000 </r>
       <r>   10.2357    0.0000 </r>
       <r>   10.8997    0.0000 </r>
       <r>   11.7246    0.0000 </r>
       <r>   12.7680    0.0000 </r>
       <r>   12.7807    0.0000 </r>
       <r>   14.0081    0.0000 </r>
       <r>   14.0675    0.0000 </r>
       <r>   14.6399    0.0000 </r>
       <r>   15.4274    0.0000 </r>
       <r>   15.9820    0.0000 </r>
       <r>   16.9808    0.0000 </r>
       <r>   18.0429    0.0000 </r>
       <r>   18.8902    0.0000 </r>
       <r>   19.0813    0.0000 </r>
       <r>   19.9505    0.0000 </r>
       <r>   20.4240    0.0000 </r>
       <r>   22.7591    0.0000 </r>
       <r>   23.4883    0.0000 </r>
       <r>   23.6891    0.0000 </r>
       <r>   24.7481    0.0000 </r>
       <r>   25.1513    0.0000 </r>
       <r>   25.2975    0.0000 </r>
       <r>   25.6772    0.0000 </r>
       <r>   26.6134    0.0000 </r>
       <r>   27.0422    0.0000 </r>
       <r>   27.1520    0.0000 </r>
       <r>   27.8242    0.0000 </r>
       <r>   28.1550    0.0000 </r>
       <r>   28.4821    0.0000 </r>
       <r>   29.5502    0.0000 </r>
       <r>   30.4565    0.0000 </r>
       <r>   30.5427    0.0000 </r>
       <r>   31.0910    0.0000 </r>
       <r>   31.3626    0.0000 </r>
       <r>   31.8008    0.0000 </r>
       <r>   32.9279    0.0000 </r>
       <r>   33.3791    0.0000 </r>
       <r>   34.1207    0.0000 </r>
       <r>   34.4272    0.0000 </r>
       <r>   35.3304    0.0000 </r>
       <r>   35.7969    0.0000 </r>
       <r>   36.9194    0.0000 </r>
       <r>   37.6137    0.0000 </r>
       <r>   39.2410    0.0000 </r>
       <r>   39.4190    0.0000 </r>
       <r>   40.1130    0.0000 </r>
       <r>   40.9027    0.0000 </r>
       <r>   41.7312    0.0000 </r>
       <r>   42.3099    0.0000 </r>
       <r>   43.6323    0.0000 </r>
       <r>   44.2573    0.0000 </r>
       <r>   44.5667    0.0000 </r>
       <r>   45.7239    0.0000 </r>
       <r>   46.5746    0.0000 </r>
       <r>   46.5788    0.0000 </r>
       <r>   47.3634    0.0000 </r>
       <r>   48.5516    0.0000 </r>
       <r>   49.0444    0.0000 </r>
       <r>   50.3280    0.0000 </r>
       <r>   51.3161    0.0000 </r>
       <r>   51.8112    0.0000 </r>
       <r>   51.8661    0.0000 </r>
       <r>   52.8349    0.0000 </r>
       <r>   52.9315    0.0000 </r>
       <r>   53.0015    0.0000 </r>
       <r>   53.2861    0.0000 </r>
       <r>   53.3153    0.0000 </r>
       <r>   53.7389    0.0000 </r>
       <r>   54.0943    0.0000 </r>
       <r>   54.1846    0.0000 </r>
       <r>   54.9641    0.0000 </r>
       <r>   55.1921    0.0000 </r>
       <r>   55.3801    0.0000 </r>
       <r>   55.7049    0.0000 </r>
       <r>   56.0496    0.0000 </r>
       <r>   56.9860    0.0000 </r>
       <r>   57.3544    0.0000 </r>
       <r>   57.7069    0.0000 </r>
       <r>   58.5461    0.0000 </r>
       <r>   58.6118    0.0000 </r>
       <r>   59.1153    0.0000 </r>
       <r>   59.4403    0.0000 </r>
       <r>   59.8790    0.0000 </r>
       <r>   59.9281    0.0000 </r>
       <r>   59.9800    0.0000 </r>
       <r>   60.2147    0.0000 </r>
       <r>   60.5601    0.0000 </r>
       <r>   60.6470    0.0000 </r>
       <r>   61.2312    0.0000 </r>
       <r>   62.3653    0.0000 </r>
       <r>   62.6867    0.0000 </r>
       <r>   63.0906    0.0000 </r>
       <r>   63.5271    0.0000 </r>
       <r>   63.5656    0.0000 </r>
       <r>   64.2920    0.0000 </r>
       <r>   64.6578    0.0000 </r>
       <r>   64.8977    0.0000 </r>
       <r>   65.0994    0.0000 </r>
       <r>   65.3509    0.0000 </r>
       <r>   65.7508    0.0000 </r>
       <r>   65.8326    0.0000 </r>
       <r>   65.9672    0.0000 </r>
       <r>   65.9943    0.0000 </r>
       <r>   66.1236    0.0000 </r>
       <r>   66.3872    0.0000 </r>
       <r>   66.4221    0.0000 </r>
       <r>   66.7081    0.0000 </r>
       <r>   67.8545    0.0000 </r>
       <r>   68.2581    0.0000 </r>
       <r>   68.3633    0.0000 </r>
       <r>   68.5386    0.0000 </r>
       <r>   68.7653    0.0000 </r>
       <r>   70.1359    0.0000 </r>
       <r>   70.2638    0.0000 </r>
       <r>   70.4216    0.0000 </r>
       <r>   70.9366    0.0000 </r>
       <r>   70.9919    0.0000 </r>
       <r>   71.4353    0.0000 </r>
      </set>
      <set comment="kpoint 8">
       <r>  -16.7864    1.0000 </r>
       <r>  -15.2940    1.0000 </r>
       <r>   -8.6464    1.0000 </r>
       <r>   -4.8634    1.0000 </r>
       <r>   -0.7937    0.0000 </r>
       <r>    4.9095    0.0000 </r>
       <r>    8.0360    0.0000 </r>
       <r>    8.9407    0.0000 </r>
       <r>    9.0089    0.0000 </r>
       <r>    9.6642    0.0000 </r>
       <r>    9.9028    0.0000 </r>
       <r>   10.6759    0.0000 </r>
       <r>   11.0949    0.0000 </r>
       <r>   11.9149    0.0000 </r>
       <r>   12.0751    0.0000 </r>
       <r>   12.8715    0.0000 </r>
       <r>   13.9354    0.0000 </r>
       <r>   15.3882    0.0000 </r>
       <r>   15.4116    0.0000 </r>
       <r>   16.3001    0.0000 </r>
       <r>   16.3231    0.0000 </r>
       <r>   17.4618    0.0000 </r>
       <r>   18.5495    0.0000 </r>
       <r>   19.2501    0.0000 </r>
       <r>   20.3000    0.0000 </r>
       <r>   20.4481    0.0000 </r>
       <r>   22.3375    0.0000 </r>
       <r>   22.4710    0.0000 </r>
       <r>   23.3396    0.0000 </r>
       <r>   24.4366    0.0000 </r>
       <r>   24.7894    0.0000 </r>
       <r>   25.0815    0.0000 </r>
       <r>   26.3895    0.0000 </r>
       <r>   26.3909    0.0000 </r>
       <r>   26.7973    0.0000 </r>
       <r>   27.4520    0.0000 </r>
       <r>   27.8310    0.0000 </r>
       <r>   28.1797    0.0000 </r>
       <r>   28.5028    0.0000 </r>
       <r>   28.7127    0.0000 </r>
       <r>   29.7884    0.0000 </r>
       <r>   30.1399    0.0000 </r>
       <r>   30.2275    0.0000 </r>
       <r>   30.9780    0.0000 </r>
       <r>   31.3591    0.0000 </r>
       <r>   32.7735    0.0000 </r>
       <r>   33.5093    0.0000 </r>
       <r>   33.8823    0.0000 </r>
       <r>   34.7413    0.0000 </r>
       <r>   35.5096    0.0000 </r>
       <r>   36.2302    0.0000 </r>
       <r>   36.7827    0.0000 </r>
       <r>   37.0615    0.0000 </r>
       <r>   37.5044    0.0000 </r>
       <r>   39.0150    0.0000 </r>
       <r>   39.7979    0.0000 </r>
       <r>   41.4479    0.0000 </r>
       <r>   41.8120    0.0000 </r>
       <r>   43.1648    0.0000 </r>
       <r>   44.6069    0.0000 </r>
       <r>   44.7989    0.0000 </r>
       <r>   45.8746    0.0000 </r>
       <r>   46.0801    0.0000 </r>
       <r>   46.0924    0.0000 </r>
       <r>   46.7415    0.0000 </r>
       <r>   47.0725    0.0000 </r>
       <r>   47.7046    0.0000 </r>
       <r>   49.6292    0.0000 </r>
       <r>   49.8419    0.0000 </r>
       <r>   51.1172    0.0000 </r>
       <r>   52.0182    0.0000 </r>
       <r>   52.2801    0.0000 </r>
       <r>   53.5953    0.0000 </r>
       <r>   54.0400    0.0000 </r>
       <r>   54.6466    0.0000 </r>
       <r>   54.9358    0.0000 </r>
       <r>   55.0049    0.0000 </r>
       <r>   55.6780    0.0000 </r>
       <r>   55.8355    0.0000 </r>
       <r>   56.0848    0.0000 </r>
       <r>   56.2517    0.0000 </r>
       <r>   56.2868    0.0000 </r>
       <r>   56.7543    0.0000 </r>
       <r>   56.8077    0.0000 </r>
       <r>   57.0118    0.0000 </r>
       <r>   57.1111    0.0000 </r>
       <r>   57.2800    0.0000 </r>
       <r>   57.9065    0.0000 </r>
       <r>   58.2363    0.0000 </r>
       <r>   58.7403    0.0000 </r>
       <r>   58.7628    0.0000 </r>
       <r>   59.4315    0.0000 </r>
       <r>   59.5474    0.0000 </r>
       <r>   59.9105    0.0000 </r>
       <r>   59.9803    0.0000 </r>
       <r>   60.5635    0.0000 </r>
       <r>   61.2853    0.0000 </r>
       <r>   61.5847    0.0000 </r>
       <r>   61.9498    0.0000 </r>
       <r>   62.1111    0.0000 </r>
       <r>   62.2667    0.0000 </r>
       <r>   62.6584    0.0000 </r>
       <r>   63.0531    0.0000 </r>
       <r>   63.2299    0.0000 </r>
       <r>   63.4224    0.0000 </r>
       <r>   63.5274    0.0000 </r>
       <r>   64.0409    0.0000 </r>
       <r>   64.1015    0.0000 </r>
       <r>   64.3262    0.0000 </r>
       <r>   64.9453    0.0000 </r>
       <r>   65.5281    0.0000 </r>
       <r>   66.0217    0.0000 </r>
       <r>   67.2311    0.0000 </r>
       <r>   67.4133    0.0000 </r>
       <r>   67.6600    0.0000 </r>
       <r>   68.0824    0.0000 </r>
       <r>   68.1130    0.0000 </r>
       <r>   68.4072    0.0000 </r>
       <r>   68.4197    0.0000 </r>
       <r>   68.7818    0.0000 </r>
       <r>   68.7988    0.0000 </r>
       <r>   68.9763    0.0000 </r>
       <r>   69.2149    0.0000 </r>
       <r>   70.0608    0.0000 </r>
       <r>   70.3208    0.0000 </r>
       <r>   70.6487    0.0000 </r>
       <r>   71.5390    0.0000 </r>
       <r>   71.5813    0.0000 </r>
      </set>
      <set comment="kpoint 9">
       <r>  -17.1875    1.0000 </r>
       <r>  -14.8313    1.0000 </r>
       <r>   -8.5948    1.0000 </r>
       <r>   -5.1035    1.0000 </r>
       <r>   -0.4869    0.0000 </r>
       <r>    4.9237    0.0000 </r>
       <r>    7.2184    0.0000 </r>
       <r>    8.1258    0.0000 </r>
       <r>    8.7946    0.0000 </r>
       <r>    9.8855    0.0000 </r>
       <r>   10.2434    0.0000 </r>
       <r>   10.8631    0.0000 </r>
       <r>   11.1016    0.0000 </r>
       <r>   11.6462    0.0000 </r>
       <r>   12.7636    0.0000 </r>
       <r>   13.6651    0.0000 </r>
       <r>   13.6870    0.0000 </r>
       <r>   14.8334    0.0000 </r>
       <r>   15.5999    0.0000 </r>
       <r>   15.6540    0.0000 </r>
       <r>   17.0432    0.0000 </r>
       <r>   17.7361    0.0000 </r>
       <r>   18.7716    0.0000 </r>
       <r>   19.1447    0.0000 </r>
       <r>   20.0944    0.0000 </r>
       <r>   20.2356    0.0000 </r>
       <r>   22.6884    0.0000 </r>
       <r>   22.8856    0.0000 </r>
       <r>   23.5339    0.0000 </r>
       <r>   24.7185    0.0000 </r>
       <r>   24.8825    0.0000 </r>
       <r>   25.2205    0.0000 </r>
       <r>   25.9897    0.0000 </r>
       <r>   26.4027    0.0000 </r>
       <r>   27.0545    0.0000 </r>
       <r>   27.4862    0.0000 </r>
       <r>   27.8871    0.0000 </r>
       <r>   27.9306    0.0000 </r>
       <r>   28.2553    0.0000 </r>
       <r>   29.0252    0.0000 </r>
       <r>   30.1868    0.0000 </r>
       <r>   30.2600    0.0000 </r>
       <r>   30.5272    0.0000 </r>
       <r>   31.0819    0.0000 </r>
       <r>   31.4697    0.0000 </r>
       <r>   32.9879    0.0000 </r>
       <r>   33.2392    0.0000 </r>
       <r>   33.8850    0.0000 </r>
       <r>   34.6930    0.0000 </r>
       <r>   35.4763    0.0000 </r>
       <r>   35.6408    0.0000 </r>
       <r>   36.9849    0.0000 </r>
       <r>   37.3307    0.0000 </r>
       <r>   38.3576    0.0000 </r>
       <r>   39.0276    0.0000 </r>
       <r>   39.7577    0.0000 </r>
       <r>   40.9643    0.0000 </r>
       <r>   41.7882    0.0000 </r>
       <r>   43.1602    0.0000 </r>
       <r>   43.8805    0.0000 </r>
       <r>   44.5999    0.0000 </r>
       <r>   45.2919    0.0000 </r>
       <r>   45.6493    0.0000 </r>
       <r>   46.2470    0.0000 </r>
       <r>   46.4501    0.0000 </r>
       <r>   47.4935    0.0000 </r>
       <r>   48.7993    0.0000 </r>
       <r>   49.2259    0.0000 </r>
       <r>   49.8603    0.0000 </r>
       <r>   51.2701    0.0000 </r>
       <r>   51.7248    0.0000 </r>
       <r>   52.2474    0.0000 </r>
       <r>   52.3249    0.0000 </r>
       <r>   52.4582    0.0000 </r>
       <r>   53.3808    0.0000 </r>
       <r>   54.0293    0.0000 </r>
       <r>   54.3903    0.0000 </r>
       <r>   54.3922    0.0000 </r>
       <r>   54.6508    0.0000 </r>
       <r>   54.7903    0.0000 </r>
       <r>   55.0833    0.0000 </r>
       <r>   55.9329    0.0000 </r>
       <r>   56.6721    0.0000 </r>
       <r>   57.2835    0.0000 </r>
       <r>   57.8414    0.0000 </r>
       <r>   57.8861    0.0000 </r>
       <r>   58.3796    0.0000 </r>
       <r>   58.3957    0.0000 </r>
       <r>   58.8545    0.0000 </r>
       <r>   59.4987    0.0000 </r>
       <r>   59.6451    0.0000 </r>
       <r>   60.1561    0.0000 </r>
       <r>   60.2449    0.0000 </r>
       <r>   60.6023    0.0000 </r>
       <r>   60.9333    0.0000 </r>
       <r>   60.9762    0.0000 </r>
       <r>   61.0111    0.0000 </r>
       <r>   61.1575    0.0000 </r>
       <r>   61.3394    0.0000 </r>
       <r>   61.7064    0.0000 </r>
       <r>   62.5552    0.0000 </r>
       <r>   63.0800    0.0000 </r>
       <r>   63.0843    0.0000 </r>
       <r>   63.4434    0.0000 </r>
       <r>   63.4466    0.0000 </r>
       <r>   63.6521    0.0000 </r>
       <r>   63.8898    0.0000 </r>
       <r>   64.2232    0.0000 </r>
       <r>   64.3172    0.0000 </r>
       <r>   65.0519    0.0000 </r>
       <r>   65.5951    0.0000 </r>
       <r>   66.5466    0.0000 </r>
       <r>   66.7376    0.0000 </r>
       <r>   66.9042    0.0000 </r>
       <r>   67.3212    0.0000 </r>
       <r>   67.3786    0.0000 </r>
       <r>   67.4325    0.0000 </r>
       <r>   67.7801    0.0000 </r>
       <r>   68.7342    0.0000 </r>
       <r>   68.8153    0.0000 </r>
       <r>   69.3733    0.0000 </r>
       <r>   69.5680    0.0000 </r>
       <r>   69.8498    0.0000 </r>
       <r>   69.9439    0.0000 </r>
       <r>   69.9959    0.0000 </r>
       <r>   70.2471    0.0000 </r>
       <r>   70.8440    0.0000 </r>
       <r>   71.0657    0.0000 </r>
      </set>
      <set comment="kpoint 10">
       <r>  -18.2295    1.0000 </r>
       <r>  -13.4652    1.0000 </r>
       <r>   -8.3748    1.0000 </r>
       <r>   -5.9980    1.0000 </r>
       <r>    0.7375    0.0000 </r>
       <r>    5.0157    0.0000 </r>
       <r>    5.6460    0.0000 </r>
       <r>    6.5420    0.0000 </r>
       <r>    7.1510    0.0000 </r>
       <r>    8.7395    0.0000 </r>
       <r>    9.5110    0.0000 </r>
       <r>   11.6021    0.0000 </r>
       <r>   11.9153    0.0000 </r>
       <r>   12.9682    0.0000 </r>
       <r>   13.3461    0.0000 </r>
       <r>   13.6870    0.0000 </r>
       <r>   14.3207    0.0000 </r>
       <r>   14.8140    0.0000 </r>
       <r>   15.6570    0.0000 </r>
       <r>   16.3550    0.0000 </r>
       <r>   17.4057    0.0000 </r>
       <r>   18.1399    0.0000 </r>
       <r>   18.5052    0.0000 </r>
       <r>   19.3834    0.0000 </r>
       <r>   20.6066    0.0000 </r>
       <r>   20.7211    0.0000 </r>
       <r>   23.1982    0.0000 </r>
       <r>   23.7649    0.0000 </r>
       <r>   24.0601    0.0000 </r>
       <r>   24.9823    0.0000 </r>
       <r>   25.6009    0.0000 </r>
       <r>   25.7175    0.0000 </r>
       <r>   25.9006    0.0000 </r>
       <r>   26.4989    0.0000 </r>
       <r>   27.1659    0.0000 </r>
       <r>   27.5468    0.0000 </r>
       <r>   28.0429    0.0000 </r>
[...]
       <r>   16.6680    0.0000 </r>
       <r>   16.9632    0.0000 </r>
       <r>   17.9156    0.0000 </r>
       <r>   18.0872    0.0000 </r>
       <r>   19.2104    0.0000 </r>
       <r>   20.4388    0.0000 </r>
       <r>   20.5420    0.0000 </r>
       <r>   22.7505    0.0000 </r>
       <r>   22.9010    0.0000 </r>
       <r>   23.4781    0.0000 </r>
       <r>   24.1884    0.0000 </r>
       <r>   24.9464    0.0000 </r>
       <r>   24.9648    0.0000 </r>
       <r>   25.4930    0.0000 </r>
       <r>   25.4990    0.0000 </r>
       <r>   25.6983    0.0000 </r>
       <r>   26.5027    0.0000 </r>
       <r>   27.1877    0.0000 </r>
       <r>   27.5611    0.0000 </r>
       <r>   27.8512    0.0000 </r>
       <r>   28.0686    0.0000 </r>
       <r>   28.6310    0.0000 </r>
       <r>   29.2115    0.0000 </r>
       <r>   30.5671    0.0000 </r>
       <r>   30.9554    0.0000 </r>
       <r>   31.0263    0.0000 </r>
       <r>   31.7847    0.0000 </r>
       <r>   32.1782    0.0000 </r>
       <r>   33.4155    0.0000 </r>
       <r>   33.9630    0.0000 </r>
       <r>   35.1581    0.0000 </r>
       <r>   36.1024    0.0000 </r>
       <r>   37.1001    0.0000 </r>
       <r>   37.1527    0.0000 </r>
       <r>   37.3903    0.0000 </r>
       <r>   37.6624    0.0000 </r>
       <r>   38.3575    0.0000 </r>
       <r>   41.3919    0.0000 </r>
       <r>   41.7267    0.0000 </r>
       <r>   43.4929    0.0000 </r>
       <r>   43.6991    0.0000 </r>
       <r>   43.8002    0.0000 </r>
       <r>   45.0249    0.0000 </r>
       <r>   46.0449    0.0000 </r>
       <r>   46.6105    0.0000 </r>
       <r>   47.1111    0.0000 </r>
       <r>   47.3886    0.0000 </r>
       <r>   48.3479    0.0000 </r>
       <r>   49.0917    0.0000 </r>
       <r>   51.0369    0.0000 </r>
       <r>   51.1924    0.0000 </r>
       <r>   51.6016    0.0000 </r>
       <r>   52.1048    0.0000 </r>
       <r>   53.2583    0.0000 </r>
       <r>   53.5260    0.0000 </r>
       <r>   54.4789    0.0000 </r>
       <r>   54.5869    0.0000 </r>
       <r>   55.3043    0.0000 </r>
       <r>   55.6688    0.0000 </r>
       <r>   55.8399    0.0000 </r>
       <r>   55.9655    0.0000 </r>
       <r>   56.3815    0.0000 </r>
       <r>   56.4464    0.0000 </r>
       <r>   56.6745    0.0000 </r>
       <r>   56.8349    0.0000 </r>
       <r>   57.6578    0.0000 </r>
       <r>   58.3207    0.0000 </r>
       <r>   58.6414    0.0000 </r>
       <r>   58.7293    0.0000 </r>
       <r>   58.7979    0.0000 </r>
       <r>   59.4254    0.0000 </r>
       <r>   59.4569    0.0000 </r>
       <r>   59.9257    0.0000 </r>
       <r>   60.2239    0.0000 </r>
       <r>   60.4373    0.0000 </r>
       <r>   60.5219    0.0000 </r>
       <r>   60.5544    0.0000 </r>
       <r>   60.7990    0.0000 </r>
       <r>   61.0095    0.0000 </r>
       <r>   61.8268    0.0000 </r>
       <r>   61.8616    0.0000 </r>
       <r>   62.4344    0.0000 </r>
       <r>   62.6367    0.0000 </r>
       <r>   62.6662    0.0000 </r>
       <r>   62.9246    0.0000 </r>
       <r>   62.9368    0.0000 </r>
       <r>   63.2369    0.0000 </r>
       <r>   63.5566    0.0000 </r>
       <r>   64.4742    0.0000 </r>
       <r>   65.3533    0.0000 </r>
       <r>   66.3703    0.0000 </r>
       <r>   66.4652    0.0000 </r>
       <r>   66.7927    0.0000 </r>
       <r>   67.0440    0.0000 </r>
       <r>   67.0798    0.0000 </r>
       <r>   67.6502    0.0000 </r>
       <r>   67.8620    0.0000 </r>
       <r>   68.0211    0.0000 </r>
       <r>   68.1163    0.0000 </r>
       <r>   68.4008    0.0000 </r>
       <r>   69.1122    0.0000 </r>
       <r>   69.3420    0.0000 </r>
       <r>   70.0519    0.0000 </r>
       <r>   70.9130    0.0000 </r>
       <r>   71.4001    0.0000 </r>
       <r>   71.5703    0.0000 </r>
       <r>   71.8522    0.0000 </r>
       <r>   72.2546    0.0000 </r>
       <r>   72.2830    0.0000 </r>
      </set>
     </set>
    </set>
   </array>
  </eigenvalues>
  <separator name="orbital magnetization" >
   <v name="MAGDIPOLOUT">      0.00000000      0.00000000      0.00000000</v>
  </separator>
  <dos>
   <i name="efermi">     -2.46864945 </i>
   <total>
    <array>
     <dimension dim="1">gridpoints</dimension>
     <dimension dim="2">spin</dimension>
     <field>energy</field>
     <field>total</field>
     <field>integrated</field>
     <set>
      <set comment="spin 1">
       <r>   -26.4429     0.0000     0.0000 </r>
       <r>   -26.0872     0.0000     0.0000 </r>
       <r>   -25.7314     0.0000     0.0000 </r>
       <r>   -25.3757     0.0000     0.0000 </r>
       <r>   -25.0199     0.0000     0.0000 </r>
       <r>   -24.6642     0.0000     0.0000 </r>
       <r>   -24.3084     0.0000     0.0000 </r>
       <r>   -23.9527     0.0000     0.0000 </r>
       <r>   -23.5970     0.0000     0.0000 </r>
       <r>   -23.2412     0.0000     0.0000 </r>
       <r>   -22.8855     0.0000     0.0000 </r>
       <r>   -22.5297     0.0000     0.0000 </r>
       <r>   -22.1740     0.0000     0.0000 </r>
       <r>   -21.8182     0.0000     0.0000 </r>
       <r>   -21.4625     0.1351     0.0481 </r>
       <r>   -21.1067     0.3237     0.1632 </r>
       <r>   -20.7510     0.2957     0.2684 </r>
       <r>   -20.3952     0.3282     0.3852 </r>
       <r>   -20.0395     0.3423     0.5069 </r>
       <r>   -19.6837     0.2669     0.6019 </r>
       <r>   -19.3280     0.3689     0.7331 </r>
       <r>   -18.9722     0.3111     0.8438 </r>
       <r>   -18.6165     0.3694     0.9752 </r>
       <r>   -18.2607     0.3368     1.0950 </r>
       <r>   -17.9050     0.2209     1.1736 </r>
       <r>   -17.5492     0.5044     1.3531 </r>
       <r>   -17.1935     0.2810     1.4530 </r>
       <r>   -16.8377     0.3365     1.5727 </r>
       <r>   -16.4820     0.5846     1.7807 </r>
       <r>   -16.1262     0.1810     1.8451 </r>
       <r>   -15.7705     0.2490     1.9337 </r>
       <r>   -15.4147     0.1571     1.9896 </r>
       <r>   -15.0590     0.2348     2.0731 </r>
       <r>   -14.7032     0.4992     2.2507 </r>
       <r>   -14.3475     0.3608     2.3791 </r>
       <r>   -13.9918     0.4701     2.5463 </r>
       <r>   -13.6360     0.2429     2.6327 </r>
       <r>   -13.2803     0.4319     2.7864 </r>
       <r>   -12.9245     0.1216     2.8296 </r>
       <r>   -12.5688     0.4686     2.9963 </r>
       <r>   -12.2130     0.2508     3.0855 </r>
       <r>   -11.8573     0.4841     3.2577 </r>
       <r>   -11.5015     0.2605     3.3504 </r>
       <r>   -11.1458     0.4204     3.5000 </r>
       <r>   -10.7900     0.4834     3.6719 </r>
       <r>   -10.4343     0.3514     3.7969 </r>
       <r>   -10.0785     0.5113     3.9788 </r>
       <r>    -9.7228     0.5256     4.1658 </r>
       <r>    -9.3670     0.7211     4.4223 </r>
       <r>    -9.0113     0.9441     4.7581 </r>
       <r>    -8.6555     1.0123     5.1183 </r>
       <r>    -8.2998     0.8207     5.4102 </r>
       <r>    -7.9440     0.9839     5.7603 </r>
       <r>    -7.5883     0.5551     5.9577 </r>
       <r>    -7.2325     0.7885     6.2382 </r>
       <r>    -6.8768     0.6519     6.4701 </r>
       <r>    -6.5210     0.5112     6.6520 </r>
       <r>    -6.1653     0.6365     6.8784 </r>
       <r>    -5.8095     0.5797     7.0846 </r>
       <r>    -5.4538     0.5023     7.2633 </r>
       <r>    -5.0980     0.4633     7.4282 </r>
       <r>    -4.7423     0.3600     7.5562 </r>
       <r>    -4.3866     0.5438     7.7497 </r>
       <r>    -4.0308     0.2650     7.8440 </r>
       <r>    -3.6751     0.1322     7.8910 </r>
       <r>    -3.3193     0.2155     7.9677 </r>
       <r>    -2.9636     0.0470     7.9844 </r>
       <r>    -2.6078     0.0177     7.9907 </r>
       <r>    -2.2521     0.0662     8.0142 </r>
       <r>    -1.8963     0.0041     8.0157 </r>
       <r>    -1.5406     0.0992     8.0509 </r>
       <r>    -1.1848     0.2664     8.1457 </r>
       <r>    -0.8291     0.3026     8.2534 </r>
       <r>    -0.4733     0.6170     8.4728 </r>
       <r>    -0.1176     0.3013     8.5800 </r>
       <r>     0.2382     0.2999     8.6867 </r>
       <r>     0.5939     0.2644     8.7808 </r>
       <r>     0.9497     0.3790     8.9156 </r>
       <r>     1.3054     0.3767     9.0496 </r>
       <r>     1.6612     0.4848     9.2221 </r>
       <r>     2.0169     0.5286     9.4102 </r>
       <r>     2.3727     0.7983     9.6941 </r>
       <r>     2.7284     0.7516     9.9615 </r>
       <r>     3.0842     0.9589    10.3027 </r>
       <r>     3.4399     0.8568    10.6075 </r>
       <r>     3.7957     0.9354    10.9403 </r>
       <r>     4.1514     0.9698    11.2853 </r>
       <r>     4.5072     1.2298    11.7228 </r>
       <r>     4.8629     1.4547    12.2403 </r>
       <r>     5.2186     1.8410    12.8952 </r>
       <r>     5.5744     1.9681    13.5953 </r>
       <r>     5.9301     2.4013    14.4496 </r>
       <r>     6.2859     2.0810    15.1899 </r>
       <r>     6.6416     1.4658    15.7114 </r>
       <r>     6.9974     1.7178    16.3225 </r>
       <r>     7.3531     2.1288    17.0798 </r>
       <r>     7.7089     1.3634    17.5649 </r>
       <r>     8.0646     1.9287    18.2510 </r>
       <r>     8.4204     2.5510    19.1585 </r>
       <r>     8.7761     1.6362    19.7406 </r>
       <r>     9.1319     2.3713    20.5841 </r>
       <r>     9.4876     2.0456    21.3118 </r>
       <r>     9.8434     2.2894    22.1263 </r>
       <r>    10.1991     2.5812    23.0445 </r>
       <r>    10.5549     1.8997    23.7203 </r>
       <r>    10.9106     2.1227    24.4755 </r>
       <r>    11.2664     2.4225    25.3373 </r>
       <r>    11.6221     2.7649    26.3209 </r>
       <r>    11.9779     1.7244    26.9343 </r>
       <r>    12.3336     1.0515    27.3084 </r>
       <r>    12.6894     1.6730    27.9036 </r>
       <r>    13.0451     2.6272    28.8382 </r>
       <r>    13.4009     2.2366    29.6339 </r>
       <r>    13.7566     2.3197    30.4591 </r>
       <r>    14.1124     3.1739    31.5882 </r>
       <r>    14.4681     2.3602    32.4278 </r>
       <r>    14.8238     2.5692    33.3418 </r>
       <r>    15.1796     1.6293    33.9215 </r>
       <r>    15.5353     2.3375    34.7530 </r>
       <r>    15.8911     2.6694    35.7027 </r>
       <r>    16.2468     2.1016    36.4503 </r>
       <r>    16.6026     2.8938    37.4798 </r>
       <r>    16.9583     2.0117    38.1954 </r>
       <r>    17.3141     2.5238    39.0933 </r>
       <r>    17.6698     2.1979    39.8752 </r>
       <r>    18.0256     2.7074    40.8383 </r>
       <r>    18.3813     2.9580    41.8906 </r>
       <r>    18.7371     2.4000    42.7444 </r>
       <r>    19.0928     3.0212    43.8192 </r>
       <r>    19.4486     3.2279    44.9675 </r>
       <r>    19.8043     2.0272    45.6887 </r>
       <r>    20.1601     2.5580    46.5987 </r>
       <r>    20.5158     3.4690    47.8328 </r>
       <r>    20.8716     3.6598    49.1348 </r>
       <r>    21.2273     2.5904    50.0563 </r>
       <r>    21.5831     2.8648    51.0755 </r>
       <r>    21.9388     2.6388    52.0142 </r>
       <r>    22.2946     2.8954    53.0442 </r>
       <r>    22.6503     3.4497    54.2715 </r>
       <r>    23.0061     2.9070    55.3056 </r>
       <r>    23.3618     3.4745    56.5417 </r>
       <r>    23.7176     2.6433    57.4820 </r>
       <r>    24.0733     2.9815    58.5427 </r>
       <r>    24.4291     2.4696    59.4212 </r>
       <r>    24.7848     2.9523    60.4715 </r>
       <r>    25.1405     2.8917    61.5002 </r>
       <r>    25.4963     2.3741    62.3448 </r>
       <r>    25.8520     3.0164    63.4179 </r>
       <r>    26.2078     3.4113    64.6314 </r>
       <r>    26.5635     2.8188    65.6342 </r>
       <r>    26.9193     2.4593    66.5091 </r>
       <r>    27.2750     2.8610    67.5269 </r>
       <r>    27.6308     2.8359    68.5357 </r>
       <r>    27.9865     2.7831    69.5258 </r>
       <r>    28.3423     3.7692    70.8667 </r>
       <r>    28.6980     2.8760    71.8898 </r>
       <r>    29.0538     2.8089    72.8891 </r>
       <r>    29.4095     3.4992    74.1339 </r>
       <r>    29.7653     2.9249    75.1745 </r>
       <r>    30.1210     2.9689    76.2306 </r>
       <r>    30.4768     3.0118    77.3021 </r>
       <r>    30.8325     3.2982    78.4754 </r>
       <r>    31.1883     3.9802    79.8914 </r>
       <r>    31.5440     3.7705    81.2327 </r>
       <r>    31.8998     3.1561    82.3555 </r>
       <r>    32.2555     2.4830    83.2388 </r>
       <r>    32.6113     2.0275    83.9601 </r>
       <r>    32.9670     2.9449    85.0077 </r>
       <r>    33.3228     4.1555    86.4861 </r>
       <r>    33.6785     3.5172    87.7373 </r>
       <r>    34.0343     3.5885    89.0139 </r>
       <r>    34.3900     3.8313    90.3769 </r>
       <r>    34.7457     3.1279    91.4896 </r>
       <r>    35.1015     3.0316    92.5681 </r>
       <r>    35.4572     3.6476    93.8657 </r>
       <r>    35.8130     3.8764    95.2448 </r>
       <r>    36.1687     3.0171    96.3181 </r>
       <r>    36.5245     3.1593    97.4420 </r>
       <r>    36.8802     3.1555    98.5646 </r>
       <r>    37.2360     3.4315    99.7853 </r>
       <r>    37.5917     3.7556   101.1214 </r>
       <r>    37.9475     4.2516   102.6339 </r>
       <r>    38.3032     4.4613   104.2210 </r>
       <r>    38.6590     3.5935   105.4994 </r>
       <r>    39.0147     3.8814   106.8802 </r>
       <r>    39.3705     4.1057   108.3408 </r>
       <r>    39.7262     4.1920   109.8321 </r>
       <r>    40.0820     3.2674   110.9944 </r>
       <r>    40.4377     4.3286   112.5343 </r>
       <r>    40.7935     3.3517   113.7267 </r>
       <r>    41.1492     3.7922   115.0758 </r>
       <r>    41.5050     4.0389   116.5126 </r>
       <r>    41.8607     4.1091   117.9744 </r>
       <r>    42.2165     4.3967   119.5385 </r>
       <r>    42.5722     3.9537   120.9450 </r>
       <r>    42.9280     3.8089   122.3001 </r>
       <r>    43.2837     3.5885   123.5766 </r>
       <r>    43.6395     3.1311   124.6905 </r>
       <r>    43.9952     4.4212   126.2633 </r>
       <r>    44.3509     3.7123   127.5840 </r>
       <r>    44.7067     4.4008   129.1496 </r>
       <r>    45.0624     3.3080   130.3264 </r>
       <r>    45.4182     4.1711   131.8103 </r>
       <r>    45.7739     4.1245   133.2775 </r>
       <r>    46.1297     4.1340   134.7482 </r>
       <r>    46.4854     4.1912   136.2392 </r>
       <r>    46.8412     4.0746   137.6887 </r>
       <r>    47.1969     3.6578   138.9900 </r>
       <r>    47.5527     3.7747   140.3328 </r>
       <r>    47.9084     3.7620   141.6711 </r>
       <r>    48.2642     3.2448   142.8255 </r>
       <r>    48.6199     4.0032   144.2496 </r>
       <r>    48.9757     4.1743   145.7346 </r>
       <r>    49.3314     4.3929   147.2973 </r>
       <r>    49.6872     4.2394   148.8055 </r>
       <r>    50.0429     4.4386   150.3845 </r>
       <r>    50.3987     3.6240   151.6738 </r>
       <r>    50.7544     4.7559   153.3657 </r>
       <r>    51.1102     3.6853   154.6767 </r>
       <r>    51.4659     3.8573   156.0490 </r>
       <r>    51.8217     4.1864   157.5383 </r>
       <r>    52.1774     4.1851   159.0271 </r>
       <r>    52.5332     3.9736   160.4407 </r>
       <r>    52.8889     4.6331   162.0889 </r>
       <r>    53.2447     4.7681   163.7852 </r>
       <r>    53.6004     4.8399   165.5070 </r>
       <r>    53.9561     4.5655   167.1311 </r>
       <r>    54.3119     3.9498   168.5363 </r>
       <r>    54.6676     4.2405   170.0448 </r>
       <r>    55.0234     4.6107   171.6851 </r>
       <r>    55.3791     4.7550   173.3767 </r>
       <r>    55.7349     3.9015   174.7646 </r>
       <r>    56.0906     4.1949   176.2569 </r>
       <r>    56.4464     3.9043   177.6459 </r>
       <r>    56.8021     4.6589   179.3033 </r>
       <r>    57.1579     4.6778   180.9674 </r>
       <r>    57.5136     4.6055   182.6058 </r>
       <r>    57.8694     4.4483   184.1882 </r>
       <r>    58.2251     4.9066   185.9338 </r>
       <r>    58.5809     4.1790   187.4205 </r>
       <r>    58.9366     4.7086   189.0955 </r>
       <r>    59.2924     3.5649   190.3637 </r>
       <r>    59.6481     4.8669   192.0951 </r>
       <r>    60.0039     4.5511   193.7142 </r>
       <r>    60.3596     4.9224   195.4653 </r>
       <r>    60.7154     4.5751   197.0929 </r>
       <r>    61.0711     3.9448   198.4963 </r>
       <r>    61.4269     4.9364   200.2524 </r>
       <r>    61.7826     4.6035   201.8901 </r>
       <r>    62.1384     5.4103   203.8148 </r>
       <r>    62.4941     4.9441   205.5736 </r>
       <r>    62.8499     4.0217   207.0044 </r>
       <r>    63.2056     3.8315   208.3674 </r>
       <r>    63.5613     4.9596   210.1318 </r>
       <r>    63.9171     5.0212   211.9181 </r>
       <r>    64.2728     5.1445   213.7482 </r>
       <r>    64.6286     4.6150   215.3900 </r>
       <r>    64.9843     4.4776   216.9829 </r>
       <r>    65.3401     4.3322   218.5240 </r>
       <r>    65.6958     4.6597   220.1817 </r>
       <r>    66.0516     5.0932   221.9936 </r>
       <r>    66.4073     5.5460   223.9666 </r>
       <r>    66.7631     4.4165   225.5378 </r>
       <r>    67.1188     5.2119   227.3919 </r>
       <r>    67.4746     5.0602   229.1921 </r>
       <r>    67.8303     3.9896   230.6114 </r>
       <r>    68.1861     4.0168   232.0403 </r>
       <r>    68.5418     4.6407   233.6912 </r>
       <r>    68.8976     4.5559   235.3120 </r>
       <r>    69.2533     5.1349   237.1387 </r>
       <r>    69.6091     5.2003   238.9887 </r>
       <r>    69.9648     4.5716   240.6151 </r>
       <r>    70.3206     5.0039   242.3952 </r>
       <r>    70.6763     5.1946   244.2432 </r>
       <r>    71.0321     4.9094   245.9897 </r>
       <r>    71.3878     4.5609   247.6122 </r>
       <r>    71.7436     3.7251   248.9374 </r>
       <r>    72.0993     3.9077   250.3276 </r>
       <r>    72.4551     3.2120   251.4702 </r>
       <r>    72.8108     3.3342   252.6564 </r>
       <r>    73.1665     2.6310   253.5923 </r>
       <r>    73.5223     2.9933   254.6572 </r>
       <r>    73.8780     1.5755   255.2177 </r>
       <r>    74.2338     1.2543   255.6639 </r>
       <r>    74.5895     0.3783   255.7985 </r>
       <r>    74.9453     0.3419   255.9201 </r>
       <r>    75.3010     0.1441   255.9713 </r>
       <r>    75.6568     0.0805   256.0000 </r>
       <r>    76.0125     0.0000   256.0000 </r>
       <r>    76.3683     0.0000   256.0000 </r>
       <r>    76.7240     0.0000   256.0000 </r>
       <r>    77.0798     0.0000   256.0000 </r>
       <r>    77.4355     0.0000   256.0000 </r>
       <r>    77.7913     0.0000   256.0000 </r>
       <r>    78.1470     0.0000   256.0000 </r>
       <r>    78.5028     0.0000   256.0000 </r>
       <r>    78.8585     0.0000   256.0000 </r>
       <r>    79.2143     0.0000   256.0000 </r>
       <r>    79.5700     0.0000   256.0000 </r>
       <r>    79.9258     0.0000   256.0000 </r>
       <r>    80.2815     0.0000   256.0000 </r>
      </set>
     </set>
    </array>
   </total>
  </dos>
 </calculation>
 <structure name="finalpos" >
  <crystal>
   <varray name="basis" >
    <v>       1.27123312      -2.13771446       0.00000000 </v>
    <v>       1.27123312       2.13771446       0.00000000 </v>
    <v>       0.00000000       0.00000000      15.52239374 </v>
   </varray>
   <i name="volume">     84.36524741 </i>
   <varray name="rec_basis" >
    <v>       0.39331889      -0.23389466       0.00000000 </v>
    <v>       0.39331889       0.23389466       0.00000000 </v>
    <v>       0.00000000       0.00000000       0.06442305 </v>
   </varray>
  </crystal>
  <varray name="positions" >
   <v>       0.66741875       0.33258125       0.50000000 </v>
   <v>       0.33258125       0.66741875       0.50000000 </v>
  </varray>
 </structure>
</modeling>
