unknown system                          
           1
     1.271233   -2.137714    0.000000
     1.271233    2.137714    0.000000
     0.000000    0.000000   15.522394
   C 
   2
Direct configuration=     1
   0.66666762  0.33333238  0.50000000
   0.33333238  0.66666762  0.50000000
Direct configuration=     2
   0.66736700  0.33263300  0.50000000
   0.33263300  0.66736700  0.50000000
Direct configuration=     3
   0.66741875  0.33258125  0.50000000
   0.33258125  0.66741875  0.50000000
