 vasp.5.4.4.18Apr17-6-g9f103f2a35 (build Nov 22 2017 20:28:56) complex          
  
 executed on             LinuxIFC date 2019.09.12  00:51:13
 running on   28 total cores
 distrk:  each k-point on   28 cores,    1 groups
 distr:  one band on NCORES_PER_BAND=   7 cores,    4 groups


--------------------------------------------------------------------------------------------------------


 INCAR:
 POTCAR:    PAW_PBE Al 04Jan2001                  
 POTCAR:    PAW_PBE O 08Apr2002                   
 POTCAR:    PAW_PBE Al 04Jan2001                  
   VRHFIN =Al: s2p1                                                             
   LEXCH  = PE                                                                  
   EATOM  =    53.5387 eV,    3.9350 Ry                                         
                                                                                
   TITEL  = PAW_PBE Al 04Jan2001                                                
   LULTRA =        F    use ultrasoft PP ?                                      
   IUNSCR =        1    unscreen: 0-lin 1-nonlin 2-no                           
   RPACOR =    1.500    partial core radius                                     
   POMASS =   26.981; ZVAL   =    3.000    mass and valenz                      
   RCORE  =    1.900    outmost cutoff radius                                   
   RWIGS  =    2.650; RWIGS  =    1.402    wigner-seitz radius (au A)           
   ENMAX  =  240.300; ENMIN  =  180.225 eV                                      
   ICORE  =        2    local potential                                         
   LCOR   =        T    correct aug charges                                     
   LPAW   =        T    paw PP                                                  
   EAUG   =  291.052                                                            
   DEXC   =    0.000                                                            
   RMAX   =    1.939    core radius for proj-oper                               
   RAUG   =    1.300    factor for augmentation sphere                          
   RDEP   =    1.966    radius for radial grids                                 
   RDEPT  =    1.856    core radius for aug-charge                              
                                                                                
   Atomic configuration                                                         
    6 entries                                                                   
     n  l   j            E        occ.                                          
     1  0  0.50     -1511.1048   2.0000                                         
     2  0  0.50      -108.1629   2.0000                                         
     2  1  1.50       -69.6402   6.0000                                         
     3  0  0.50        -7.7528   2.0000                                         
     3  1  1.50        -2.7121   1.0000                                         
     3  2  2.50        -2.7212   0.0000                                         
   Description                                                                  
     l       E           TYP  RCUT    TYP  RCUT                                 
     0     -7.7528455     23  1.900                                             
     0     -3.3096929     23  1.900                                             
     1     -2.7120682     23  1.900                                             
     1     13.6058260     23  1.900                                             
     2     -2.7211652      7  1.900                                             
  local pseudopotential read in
  partial core-charges read in
  partial kinetic energy density read in
  atomic valenz-charges read in
  non local Contribution for L=           0  read in
    real space projection operators read in
  non local Contribution for L=           0  read in
    real space projection operators read in
  non local Contribution for L=           1  read in
    real space projection operators read in
  non local Contribution for L=           1  read in
    real space projection operators read in
    PAW grid and wavefunctions read in
 
   number of l-projection  operators is LMAX  =           4
   number of lm-projection operators is LMMAX =           8
 
 POTCAR:    PAW_PBE O 08Apr2002                   
   VRHFIN =O: s2p4                                                              
   LEXCH  = PE                                                                  
   EATOM  =   432.3788 eV,   31.7789 Ry                                         
                                                                                
   TITEL  = PAW_PBE O 08Apr2002                                                 
   LULTRA =        F    use ultrasoft PP ?                                      
   IUNSCR =        1    unscreen: 0-lin 1-nonlin 2-no                           
   RPACOR =    1.200    partial core radius                                     
   POMASS =   16.000; ZVAL   =    6.000    mass and valenz                      
   RCORE  =    1.520    outmost cutoff radius                                   
   RWIGS  =    1.550; RWIGS  =    0.820    wigner-seitz radius (au A)           
   ENMAX  =  400.000; ENMIN  =  300.000 eV                                      
   ICORE  =        2    local potential                                         
   LCOR   =        T    correct aug charges                                     
   LPAW   =        T    paw PP                                                  
   EAUG   =  605.392                                                            
   DEXC   =    0.000                                                            
   RMAX   =    1.553    core radius for proj-oper                               
   RAUG   =    1.300    factor for augmentation sphere                          
   RDEP   =    1.550    radius for radial grids                                 
   RDEPT  =    1.329    core radius for aug-charge                              
                                                                                
   Atomic configuration                                                         
    4 entries                                                                   
     n  l   j            E        occ.                                          
     1  0  0.50      -514.6923   2.0000                                         
     2  0  0.50       -23.9615   2.0000                                         
     2  1  0.50        -9.0305   4.0000                                         
     3  2  1.50        -9.5241   0.0000                                         
   Description                                                                  
     l       E           TYP  RCUT    TYP  RCUT                                 
     0    -23.9615318     23  1.200                                             
     0     -9.5240782     23  1.200                                             
     1     -9.0304911     23  1.520                                             
     1      8.1634956     23  1.520                                             
     2     -9.5240782      7  1.500                                             
  local pseudopotential read in
  partial core-charges read in
  partial kinetic energy density read in
  kinetic energy density of atom read in
  atomic valenz-charges read in
  non local Contribution for L=           0  read in
    real space projection operators read in
  non local Contribution for L=           0  read in
    real space projection operators read in
  non local Contribution for L=           1  read in
    real space projection operators read in
  non local Contribution for L=           1  read in
    real space projection operators read in
    PAW grid and wavefunctions read in
 
   number of l-projection  operators is LMAX  =           4
   number of lm-projection operators is LMMAX =           8
 
  PAW_PBE Al 04Jan2001                  :
 energy of atom  1       EATOM=  -53.5387
 kinetic energy error for atom=    0.0002 (will be added to EATOM!!)
  PAW_PBE O 08Apr2002                   :
 energy of atom  2       EATOM= -432.3788
 kinetic energy error for atom=    0.0168 (will be added to EATOM!!)
 
 
 POSCAR: Al  O                                   
  positions in direct lattice
  No initial velocities read in
 exchange correlation table for  LEXCH =        8
   RHO(1)=    0.500       N(1)  =     2000
   RHO(2)=  100.500       N(2)  =     4000
 


--------------------------------------------------------------------------------------------------------


 ion  position               nearest neighbor table
   1  0.148  0.148  0.148-   6 1.87  10 1.87   9 1.87   5 1.99   7 1.99   8 1.99   2 2.68   4 2.82
                             4 2.82   4 2.82   2 3.25   2 3.25   2 3.25
   2  0.352  0.352  0.352-   6 1.87   9 1.87  10 1.87   7 1.99   8 1.99   5 1.99   1 2.68   3 2.82
                             3 2.82   3 2.82   1 3.25   1 3.25   1 3.25
   3  0.648  0.648  0.648-   7 1.87   8 1.87   5 1.87   6 1.99   9 1.99  10 1.99   4 2.68   2 2.82
                             2 2.82   2 2.82   4 3.25   4 3.25   4 3.25
   4  0.852  0.852  0.852-   5 1.87   7 1.87   8 1.87   6 1.99  10 1.99   9 1.99   3 2.68   1 2.82
                             1 2.82   1 2.82   3 3.25   3 3.25   3 3.25
   5  0.944  0.250  0.556-   4 1.87   3 1.87   1 1.99   2 1.99
   6  0.444  0.056  0.750-   1 1.87   2 1.87   3 1.99   4 1.99
   7  0.556  0.944  0.250-   3 1.87   4 1.87   1 1.99   2 1.99
   8  0.250  0.556  0.944-   3 1.87   4 1.87   2 1.99   1 1.99
   9  0.750  0.444  0.056-   2 1.87   1 1.87   3 1.99   4 1.99
  10  0.056  0.750  0.444-   1 1.87   2 1.87   4 1.99   3 1.99
 
  LATTYP: Found a trigonal (rhomboedric) cell.
 ALAT       =     5.1769340508
 COS(alpha) =     0.5691379551
  
  Lattice vectors:
  
 A1 = (   2.4028505167,   1.3872863926,   4.3706283330)
 A2 = (  -2.4028505167,   1.3872863926,   4.3706283330)
 A3 = (   0.0000000000,  -2.7745727853,   4.3706283330)


Analysis of symmetry for initial positions (statically):
=====================================================================
 Subroutine PRICEL returns:
 Original cell was already a primitive cell.
 

 Routine SETGRP: Setting up the symmetry group for a 
 trigonal (rhombohedral) supercell.


 Subroutine GETGRP returns: Found 12 space group operations
 (whereof  6 operations were pure point group operations)
 out of a pool of 12 trial point group operations.


The static configuration has the point symmetry S_6 .
 The point group associated with its full space group is D_3d.


Analysis of symmetry for dynamics (positions and initial velocities):
=====================================================================
 Subroutine PRICEL returns:
 Original cell was already a primitive cell.
 

 Routine SETGRP: Setting up the symmetry group for a 
 trigonal (rhombohedral) supercell.


 Subroutine GETGRP returns: Found 12 space group operations
 (whereof  6 operations were pure point group operations)
 out of a pool of 12 trial point group operations.


The dynamic configuration has the point symmetry S_6 .
 The point group associated with its full space group is D_3d.


 Subroutine INISYM returns: Found 12 space group operations
 (whereof  6 operations are pure point group operations),
 and found     1 'primitive' translations

 
 
 KPOINTS: A                                       

Automatic generation of k-mesh.
Space group operators:
 irot       det(A)        alpha          n_x          n_y          n_z        tau_x        tau_y        tau_z
    1     1.000000     0.000000     1.000000     0.000000     0.000000     0.000000     0.000000     0.000000
    2    -1.000000     0.000000     1.000000     0.000000     0.000000     0.000000     0.000000     0.000000
    3     1.000000   120.000000     0.000000     0.000000    -1.000000     0.000000     0.000000     0.000000
    4    -1.000000   120.000000     0.000000     0.000000    -1.000000     0.000000     0.000000     0.000000
    5     1.000000   120.000000     0.000000     0.000000     1.000000     0.000000     0.000000     0.000000
    6    -1.000000   120.000000     0.000000     0.000000     1.000000     0.000000     0.000000     0.000000
    7     1.000000   180.000000     0.500000    -0.866025     0.000000     0.500000     0.500000     0.500000
    8    -1.000000   180.000000     0.500000    -0.866025     0.000000     0.500000     0.500000     0.500000
    9     1.000000   179.999999     1.000000     0.000000     0.000000     0.500000     0.500000     0.500000
   10    -1.000000   179.999999     1.000000     0.000000     0.000000     0.500000     0.500000     0.500000
   11     1.000000   180.000000    -0.500000    -0.866025     0.000000     0.500000     0.500000     0.500000
   12    -1.000000   180.000000    -0.500000    -0.866025     0.000000     0.500000     0.500000     0.500000
 
 Subroutine IBZKPT returns following result:
 ===========================================
 
 Found    408 irreducible k-points:
 
 Following reciprocal coordinates:
            Coordinates               Weight
  0.031250  0.031250  0.031250      2.000000
  0.093750  0.031250  0.031250      6.000000
  0.156250  0.031250  0.031250      6.000000
  0.218750  0.031250  0.031250      6.000000
  0.281250  0.031250  0.031250      6.000000
  0.343750  0.031250  0.031250      6.000000
  0.406250  0.031250  0.031250      6.000000
  0.468750  0.031250  0.031250      6.000000
 -0.468750  0.031250  0.031250      6.000000
 -0.406250  0.031250  0.031250      6.000000
 -0.343750  0.031250  0.031250      6.000000
 -0.281250  0.031250  0.031250      6.000000
 -0.218750  0.031250  0.031250      6.000000
 -0.156250  0.031250  0.031250      6.000000
 -0.093750  0.031250  0.031250      6.000000
 -0.031250  0.031250  0.031250      6.000000
  0.093750  0.093750  0.031250      6.000000
  0.156250  0.093750  0.031250     12.000000
  0.218750  0.093750  0.031250     12.000000
  0.281250  0.093750  0.031250     12.000000
  0.343750  0.093750  0.031250     12.000000
  0.406250  0.093750  0.031250     12.000000
  0.468750  0.093750  0.031250     12.000000
 -0.468750  0.093750  0.031250     12.000000
 -0.406250  0.093750  0.031250     12.000000
 -0.343750  0.093750  0.031250     12.000000
 -0.281250  0.093750  0.031250     12.000000
 -0.218750  0.093750  0.031250     12.000000
 -0.156250  0.093750  0.031250     12.000000
 -0.093750  0.093750  0.031250     12.000000
 -0.031250  0.093750  0.031250     12.000000
  0.156250  0.156250  0.031250      6.000000
  0.218750  0.156250  0.031250     12.000000
  0.281250  0.156250  0.031250     12.000000
  0.343750  0.156250  0.031250     12.000000
  0.406250  0.156250  0.031250     12.000000
  0.468750  0.156250  0.031250     12.000000
 -0.468750  0.156250  0.031250     12.000000
 -0.406250  0.156250  0.031250     12.000000
 -0.343750  0.156250  0.031250     12.000000
 -0.281250  0.156250  0.031250     12.000000
 -0.218750  0.156250  0.031250     12.000000
 -0.156250  0.156250  0.031250     12.000000
 -0.093750  0.156250  0.031250     12.000000
 -0.031250  0.156250  0.031250     12.000000
  0.218750  0.218750  0.031250      6.000000
  0.281250  0.218750  0.031250     12.000000
  0.343750  0.218750  0.031250     12.000000
  0.406250  0.218750  0.031250     12.000000
  0.468750  0.218750  0.031250     12.000000
 -0.468750  0.218750  0.031250     12.000000
 -0.406250  0.218750  0.031250     12.000000
 -0.343750  0.218750  0.031250     12.000000
 -0.281250  0.218750  0.031250     12.000000
 -0.218750  0.218750  0.031250     12.000000
 -0.156250  0.218750  0.031250     12.000000
 -0.093750  0.218750  0.031250     12.000000
 -0.031250  0.218750  0.031250     12.000000
  0.281250  0.281250  0.031250      6.000000
  0.343750  0.281250  0.031250     12.000000
  0.406250  0.281250  0.031250     12.000000
  0.468750  0.281250  0.031250     12.000000
 -0.468750  0.281250  0.031250     12.000000
 -0.406250  0.281250  0.031250     12.000000
 -0.343750  0.281250  0.031250     12.000000
 -0.281250  0.281250  0.031250     12.000000
 -0.218750  0.281250  0.031250     12.000000
 -0.156250  0.281250  0.031250     12.000000
 -0.093750  0.281250  0.031250     12.000000
 -0.031250  0.281250  0.031250     12.000000
  0.343750  0.343750  0.031250      6.000000
  0.406250  0.343750  0.031250     12.000000
  0.468750  0.343750  0.031250     12.000000
 -0.468750  0.343750  0.031250     12.000000
 -0.406250  0.343750  0.031250     12.000000
 -0.343750  0.343750  0.031250     12.000000
 -0.281250  0.343750  0.031250     12.000000
 -0.218750  0.343750  0.031250     12.000000
 -0.156250  0.343750  0.031250     12.000000
 -0.093750  0.343750  0.031250     12.000000
 -0.031250  0.343750  0.031250     12.000000
  0.406250  0.406250  0.031250      6.000000
  0.468750  0.406250  0.031250     12.000000
 -0.468750  0.406250  0.031250     12.000000
 -0.406250  0.406250  0.031250     12.000000
 -0.343750  0.406250  0.031250     12.000000
 -0.281250  0.406250  0.031250     12.000000
 -0.218750  0.406250  0.031250     12.000000
 -0.156250  0.406250  0.031250     12.000000
 -0.093750  0.406250  0.031250     12.000000
 -0.031250  0.406250  0.031250     12.000000
  0.468750  0.468750  0.031250      6.000000
 -0.468750  0.468750  0.031250     12.000000
 -0.406250  0.468750  0.031250     12.000000
 -0.343750  0.468750  0.031250     12.000000
 -0.281250  0.468750  0.031250     12.000000
 -0.218750  0.468750  0.031250     12.000000
 -0.156250  0.468750  0.031250     12.000000
 -0.093750  0.468750  0.031250     12.000000
 -0.031250  0.468750  0.031250     12.000000
 -0.468750 -0.468750  0.031250      6.000000
 -0.406250 -0.468750  0.031250     12.000000
 -0.343750 -0.468750  0.031250     12.000000
 -0.281250 -0.468750  0.031250     12.000000
 -0.218750 -0.468750  0.031250     12.000000
 -0.156250 -0.468750  0.031250     12.000000
 -0.093750 -0.468750  0.031250     12.000000
 -0.406250 -0.406250  0.031250      6.000000
 -0.343750 -0.406250  0.031250     12.000000
 -0.281250 -0.406250  0.031250     12.000000
 -0.218750 -0.406250  0.031250     12.000000
 -0.156250 -0.406250  0.031250     12.000000
 -0.093750 -0.406250  0.031250     12.000000
 -0.343750 -0.343750  0.031250      6.000000
 -0.281250 -0.343750  0.031250     12.000000
 -0.218750 -0.343750  0.031250     12.000000
 -0.156250 -0.343750  0.031250     12.000000
 -0.093750 -0.343750  0.031250     12.000000
 -0.281250 -0.281250  0.031250      6.000000
 -0.218750 -0.281250  0.031250     12.000000
 -0.156250 -0.281250  0.031250     12.000000
 -0.093750 -0.281250  0.031250     12.000000
 -0.218750 -0.218750  0.031250      6.000000
 -0.156250 -0.218750  0.031250     12.000000
 -0.093750 -0.218750  0.031250     12.000000
 -0.156250 -0.156250  0.031250      6.000000
 -0.093750 -0.156250  0.031250     12.000000
 -0.093750 -0.093750  0.031250      6.000000
  0.093750  0.093750  0.093750      2.000000
  0.156250  0.093750  0.093750      6.000000
  0.218750  0.093750  0.093750      6.000000
  0.281250  0.093750  0.093750      6.000000
  0.343750  0.093750  0.093750      6.000000
  0.406250  0.093750  0.093750      6.000000
  0.468750  0.093750  0.093750      6.000000
 -0.468750  0.093750  0.093750      6.000000
 -0.406250  0.093750  0.093750      6.000000
 -0.343750  0.093750  0.093750      6.000000
 -0.281250  0.093750  0.093750      6.000000
 -0.218750  0.093750  0.093750      6.000000
 -0.156250  0.093750  0.093750      6.000000
 -0.093750  0.093750  0.093750      6.000000
  0.156250  0.156250  0.093750      6.000000
  0.218750  0.156250  0.093750     12.000000
  0.281250  0.156250  0.093750     12.000000
  0.343750  0.156250  0.093750     12.000000
  0.406250  0.156250  0.093750     12.000000
  0.468750  0.156250  0.093750     12.000000
 -0.468750  0.156250  0.093750     12.000000
 -0.406250  0.156250  0.093750     12.000000
 -0.343750  0.156250  0.093750     12.000000
 -0.281250  0.156250  0.093750     12.000000
 -0.218750  0.156250  0.093750     12.000000
 -0.156250  0.156250  0.093750     12.000000
 -0.093750  0.156250  0.093750     12.000000
  0.218750  0.218750  0.093750      6.000000
  0.281250  0.218750  0.093750     12.000000
  0.343750  0.218750  0.093750     12.000000
  0.406250  0.218750  0.093750     12.000000
  0.468750  0.218750  0.093750     12.000000
 -0.468750  0.218750  0.093750     12.000000
 -0.406250  0.218750  0.093750     12.000000
 -0.343750  0.218750  0.093750     12.000000
 -0.281250  0.218750  0.093750     12.000000
 -0.218750  0.218750  0.093750     12.000000
 -0.156250  0.218750  0.093750     12.000000
 -0.093750  0.218750  0.093750     12.000000
  0.281250  0.281250  0.093750      6.000000
  0.343750  0.281250  0.093750     12.000000
  0.406250  0.281250  0.093750     12.000000
  0.468750  0.281250  0.093750     12.000000
 -0.468750  0.281250  0.093750     12.000000
 -0.406250  0.281250  0.093750     12.000000
 -0.343750  0.281250  0.093750     12.000000
 -0.281250  0.281250  0.093750     12.000000
 -0.218750  0.281250  0.093750     12.000000
 -0.156250  0.281250  0.093750     12.000000
 -0.093750  0.281250  0.093750     12.000000
  0.343750  0.343750  0.093750      6.000000
  0.406250  0.343750  0.093750     12.000000
  0.468750  0.343750  0.093750     12.000000
 -0.468750  0.343750  0.093750     12.000000
 -0.406250  0.343750  0.093750     12.000000
 -0.343750  0.343750  0.093750     12.000000
 -0.281250  0.343750  0.093750     12.000000
 -0.218750  0.343750  0.093750     12.000000
 -0.156250  0.343750  0.093750     12.000000
 -0.093750  0.343750  0.093750     12.000000
  0.406250  0.406250  0.093750      6.000000
  0.468750  0.406250  0.093750     12.000000
 -0.468750  0.406250  0.093750     12.000000
 -0.406250  0.406250  0.093750     12.000000
 -0.343750  0.406250  0.093750     12.000000
 -0.281250  0.406250  0.093750     12.000000
 -0.218750  0.406250  0.093750     12.000000
 -0.156250  0.406250  0.093750     12.000000
 -0.093750  0.406250  0.093750     12.000000
  0.468750  0.468750  0.093750      6.000000
 -0.468750  0.468750  0.093750     12.000000
 -0.406250  0.468750  0.093750     12.000000
 -0.343750  0.468750  0.093750     12.000000
 -0.281250  0.468750  0.093750     12.000000
 -0.218750  0.468750  0.093750     12.000000
 -0.156250  0.468750  0.093750     12.000000
 -0.093750  0.468750  0.093750     12.000000
 -0.468750 -0.468750  0.093750      6.000000
 -0.406250 -0.468750  0.093750     12.000000
 -0.343750 -0.468750  0.093750     12.000000
 -0.281250 -0.468750  0.093750     12.000000
 -0.218750 -0.468750  0.093750     12.000000
 -0.156250 -0.468750  0.093750     12.000000
 -0.406250 -0.406250  0.093750      6.000000
 -0.343750 -0.406250  0.093750     12.000000
 -0.281250 -0.406250  0.093750     12.000000
 -0.218750 -0.406250  0.093750     12.000000
 -0.156250 -0.406250  0.093750     12.000000
 -0.343750 -0.343750  0.093750      6.000000
 -0.281250 -0.343750  0.093750     12.000000
 -0.218750 -0.343750  0.093750     12.000000
 -0.156250 -0.343750  0.093750     12.000000
 -0.281250 -0.281250  0.093750      6.000000
 -0.218750 -0.281250  0.093750     12.000000
 -0.156250 -0.281250  0.093750     12.000000
 -0.218750 -0.218750  0.093750      6.000000
 -0.156250 -0.218750  0.093750     12.000000
 -0.156250 -0.156250  0.093750      6.000000
  0.156250  0.156250  0.156250      2.000000
  0.218750  0.156250  0.156250      6.000000
  0.281250  0.156250  0.156250      6.000000
  0.343750  0.156250  0.156250      6.000000
  0.406250  0.156250  0.156250      6.000000
  0.468750  0.156250  0.156250      6.000000
 -0.468750  0.156250  0.156250      6.000000
 -0.406250  0.156250  0.156250      6.000000
 -0.343750  0.156250  0.156250      6.000000
 -0.281250  0.156250  0.156250      6.000000
 -0.218750  0.156250  0.156250      6.000000
 -0.156250  0.156250  0.156250      6.000000
  0.218750  0.218750  0.156250      6.000000
  0.281250  0.218750  0.156250     12.000000
  0.343750  0.218750  0.156250     12.000000
  0.406250  0.218750  0.156250     12.000000
  0.468750  0.218750  0.156250     12.000000
 -0.468750  0.218750  0.156250     12.000000
 -0.406250  0.218750  0.156250     12.000000
 -0.343750  0.218750  0.156250     12.000000
 -0.281250  0.218750  0.156250     12.000000
 -0.218750  0.218750  0.156250     12.000000
 -0.156250  0.218750  0.156250     12.000000
  0.281250  0.281250  0.156250      6.000000
  0.343750  0.281250  0.156250     12.000000
  0.406250  0.281250  0.156250     12.000000
  0.468750  0.281250  0.156250     12.000000
 -0.468750  0.281250  0.156250     12.000000
 -0.406250  0.281250  0.156250     12.000000
 -0.343750  0.281250  0.156250     12.000000
 -0.281250  0.281250  0.156250     12.000000
 -0.218750  0.281250  0.156250     12.000000
 -0.156250  0.281250  0.156250     12.000000
  0.343750  0.343750  0.156250      6.000000
  0.406250  0.343750  0.156250     12.000000
  0.468750  0.343750  0.156250     12.000000
 -0.468750  0.343750  0.156250     12.000000
 -0.406250  0.343750  0.156250     12.000000
 -0.343750  0.343750  0.156250     12.000000
 -0.281250  0.343750  0.156250     12.000000
 -0.218750  0.343750  0.156250     12.000000
 -0.156250  0.343750  0.156250     12.000000
  0.406250  0.406250  0.156250      6.000000
  0.468750  0.406250  0.156250     12.000000
 -0.468750  0.406250  0.156250     12.000000
 -0.406250  0.406250  0.156250     12.000000
 -0.343750  0.406250  0.156250     12.000000
 -0.281250  0.406250  0.156250     12.000000
 -0.218750  0.406250  0.156250     12.000000
 -0.156250  0.406250  0.156250     12.000000
  0.468750  0.468750  0.156250      6.000000
 -0.468750  0.468750  0.156250     12.000000
 -0.406250  0.468750  0.156250     12.000000
 -0.343750  0.468750  0.156250     12.000000
 -0.281250  0.468750  0.156250     12.000000
 -0.218750  0.468750  0.156250     12.000000
 -0.156250  0.468750  0.156250     12.000000
 -0.468750 -0.468750  0.156250      6.000000
 -0.406250 -0.468750  0.156250     12.000000
 -0.343750 -0.468750  0.156250     12.000000
 -0.281250 -0.468750  0.156250     12.000000
 -0.218750 -0.468750  0.156250     12.000000
 -0.406250 -0.406250  0.156250      6.000000
 -0.343750 -0.406250  0.156250     12.000000
 -0.281250 -0.406250  0.156250     12.000000
 -0.218750 -0.406250  0.156250     12.000000
 -0.343750 -0.343750  0.156250      6.000000
 -0.281250 -0.343750  0.156250     12.000000
 -0.218750 -0.343750  0.156250     12.000000
 -0.281250 -0.281250  0.156250      6.000000
 -0.218750 -0.281250  0.156250     12.000000
 -0.218750 -0.218750  0.156250      6.000000
  0.218750  0.218750  0.218750      2.000000
  0.281250  0.218750  0.218750      6.000000
  0.343750  0.218750  0.218750      6.000000
  0.406250  0.218750  0.218750      6.000000
  0.468750  0.218750  0.218750      6.000000
 -0.468750  0.218750  0.218750      6.000000
 -0.406250  0.218750  0.218750      6.000000
 -0.343750  0.218750  0.218750      6.000000
 -0.281250  0.218750  0.218750      6.000000
 -0.218750  0.218750  0.218750      6.000000
  0.281250  0.281250  0.218750      6.000000
  0.343750  0.281250  0.218750     12.000000
  0.406250  0.281250  0.218750     12.000000
  0.468750  0.281250  0.218750     12.000000
 -0.468750  0.281250  0.218750     12.000000
 -0.406250  0.281250  0.218750     12.000000
 -0.343750  0.281250  0.218750     12.000000
 -0.281250  0.281250  0.218750     12.000000
 -0.218750  0.281250  0.218750     12.000000
  0.343750  0.343750  0.218750      6.000000
  0.406250  0.343750  0.218750     12.000000
  0.468750  0.343750  0.218750     12.000000
 -0.468750  0.343750  0.218750     12.000000
 -0.406250  0.343750  0.218750     12.000000
 -0.343750  0.343750  0.218750     12.000000
 -0.281250  0.343750  0.218750     12.000000
 -0.218750  0.343750  0.218750     12.000000
  0.406250  0.406250  0.218750      6.000000
  0.468750  0.406250  0.218750     12.000000
 -0.468750  0.406250  0.218750     12.000000
 -0.406250  0.406250  0.218750     12.000000
 -0.343750  0.406250  0.218750     12.000000
 -0.281250  0.406250  0.218750     12.000000
 -0.218750  0.406250  0.218750     12.000000
  0.468750  0.468750  0.218750      6.000000
 -0.468750  0.468750  0.218750     12.000000
 -0.406250  0.468750  0.218750     12.000000
 -0.343750  0.468750  0.218750     12.000000
 -0.281250  0.468750  0.218750     12.000000
 -0.218750  0.468750  0.218750     12.000000
 -0.468750 -0.468750  0.218750      6.000000
 -0.406250 -0.468750  0.218750     12.000000
 -0.343750 -0.468750  0.218750     12.000000
 -0.281250 -0.468750  0.218750     12.000000
 -0.406250 -0.406250  0.218750      6.000000
 -0.343750 -0.406250  0.218750     12.000000
 -0.281250 -0.406250  0.218750     12.000000
 -0.343750 -0.343750  0.218750      6.000000
 -0.281250 -0.343750  0.218750     12.000000
 -0.281250 -0.281250  0.218750      6.000000
  0.281250  0.281250  0.281250      2.000000
  0.343750  0.281250  0.281250      6.000000
  0.406250  0.281250  0.281250      6.000000
  0.468750  0.281250  0.281250      6.000000
 -0.468750  0.281250  0.281250      6.000000
 -0.406250  0.281250  0.281250      6.000000
 -0.343750  0.281250  0.281250      6.000000
 -0.281250  0.281250  0.281250      6.000000
  0.343750  0.343750  0.281250      6.000000
  0.406250  0.343750  0.281250     12.000000
  0.468750  0.343750  0.281250     12.000000
 -0.468750  0.343750  0.281250     12.000000
 -0.406250  0.343750  0.281250     12.000000
 -0.343750  0.343750  0.281250     12.000000
 -0.281250  0.343750  0.281250     12.000000
  0.406250  0.406250  0.281250      6.000000
  0.468750  0.406250  0.281250     12.000000
 -0.468750  0.406250  0.281250     12.000000
 -0.406250  0.406250  0.281250     12.000000
 -0.343750  0.406250  0.281250     12.000000
 -0.281250  0.406250  0.281250     12.000000
  0.468750  0.468750  0.281250      6.000000
 -0.468750  0.468750  0.281250     12.000000
 -0.406250  0.468750  0.281250     12.000000
 -0.343750  0.468750  0.281250     12.000000
 -0.281250  0.468750  0.281250     12.000000
 -0.468750 -0.468750  0.281250      6.000000
 -0.406250 -0.468750  0.281250     12.000000
 -0.343750 -0.468750  0.281250     12.000000
 -0.406250 -0.406250  0.281250      6.000000
 -0.343750 -0.406250  0.281250     12.000000
 -0.343750 -0.343750  0.281250      6.000000
  0.343750  0.343750  0.343750      2.000000
  0.406250  0.343750  0.343750      6.000000
  0.468750  0.343750  0.343750      6.000000
 -0.468750  0.343750  0.343750      6.000000
 -0.406250  0.343750  0.343750      6.000000
 -0.343750  0.343750  0.343750      6.000000
  0.406250  0.406250  0.343750      6.000000
  0.468750  0.406250  0.343750     12.000000
 -0.468750  0.406250  0.343750     12.000000
 -0.406250  0.406250  0.343750     12.000000
 -0.343750  0.406250  0.343750     12.000000
  0.468750  0.468750  0.343750      6.000000
 -0.468750  0.468750  0.343750     12.000000
 -0.406250  0.468750  0.343750     12.000000
 -0.343750  0.468750  0.343750     12.000000
 -0.468750 -0.468750  0.343750      6.000000
 -0.406250 -0.468750  0.343750     12.000000
 -0.406250 -0.406250  0.343750      6.000000
  0.406250  0.406250  0.406250      2.000000
  0.468750  0.406250  0.406250      6.000000
 -0.468750  0.406250  0.406250      6.000000
 -0.406250  0.406250  0.406250      6.000000
  0.468750  0.468750  0.406250      6.000000
 -0.468750  0.468750  0.406250     12.000000
 -0.406250  0.468750  0.406250     12.000000
 -0.468750 -0.468750  0.406250      6.000000
  0.468750  0.468750  0.468750      2.000000
 -0.468750  0.468750  0.468750      6.000000
 
 Following cartesian coordinates:
            Coordinates               Weight
  0.000000  0.000000  0.007150      2.000000
  0.013005  0.007509  0.011917      6.000000
  0.026011  0.015017  0.016683      6.000000
  0.039016  0.022526  0.021450      6.000000
  0.052022  0.030035  0.026217      6.000000
  0.065027  0.037543  0.030983      6.000000
  0.078032  0.045052  0.035750      6.000000
  0.091038  0.052561  0.040517      6.000000
 -0.104043 -0.060069 -0.030983      6.000000
 -0.091038 -0.052561 -0.026217      6.000000
 -0.078032 -0.045052 -0.021450      6.000000
 -0.065027 -0.037543 -0.016683      6.000000
 -0.052022 -0.030035 -0.011917      6.000000
 -0.039016 -0.022526 -0.007150      6.000000
 -0.026011 -0.015017 -0.002383      6.000000
 -0.013005 -0.007509  0.002383      6.000000
  0.000000  0.015017  0.016683      6.000000
  0.013005  0.022526  0.021450     12.000000
  0.026011  0.030035  0.026217     12.000000
  0.039016  0.037543  0.030983     12.000000
  0.052022  0.045052  0.035750     12.000000
  0.065027  0.052561  0.040517     12.000000
  0.078032  0.060069  0.045283     12.000000
 -0.117048 -0.052561 -0.026217     12.000000
 -0.104043 -0.045052 -0.021450     12.000000
 -0.091038 -0.037543 -0.016683     12.000000
 -0.078032 -0.030035 -0.011917     12.000000
 -0.065027 -0.022526 -0.007150     12.000000
 -0.052022 -0.015017 -0.002383     12.000000
 -0.039016 -0.007509  0.002383     12.000000
 -0.026011  0.000000  0.007150     12.000000
  0.000000  0.030035  0.026217      6.000000
  0.013005  0.037543  0.030983     12.000000
  0.026011  0.045052  0.035750     12.000000
  0.039016  0.052561  0.040517     12.000000
  0.052022  0.060069  0.045283     12.000000
  0.065027  0.067578  0.050050     12.000000
 -0.130054 -0.045052 -0.021450     12.000000
 -0.117048 -0.037543 -0.016683     12.000000
 -0.104043 -0.030035 -0.011917     12.000000
 -0.091038 -0.022526 -0.007150     12.000000
 -0.078032 -0.015017 -0.002383     12.000000
 -0.065027 -0.007509  0.002383     12.000000
 -0.052022 -0.000000  0.007150     12.000000
 -0.039016  0.007509  0.011917     12.000000
  0.000000  0.045052  0.035750      6.000000
  0.013005  0.052561  0.040517     12.000000
  0.026011  0.060069  0.045283     12.000000
  0.039016  0.067578  0.050050     12.000000
  0.052022  0.075087  0.054817     12.000000
 -0.143059 -0.037543 -0.016683     12.000000
 -0.130054 -0.030035 -0.011917     12.000000
 -0.117048 -0.022526 -0.007150     12.000000
 -0.104043 -0.015017 -0.002383     12.000000
 -0.091038 -0.007509  0.002383     12.000000
 -0.078032  0.000000  0.007150     12.000000
 -0.065027  0.007509  0.011917     12.000000
 -0.052022  0.015017  0.016683     12.000000
  0.000000  0.060069  0.045283      6.000000
  0.013005  0.067578  0.050050     12.000000
  0.026011  0.075087  0.054817     12.000000
  0.039016  0.082595  0.059583     12.000000
 -0.156065 -0.030035 -0.011917     12.000000
 -0.143059 -0.022526 -0.007150     12.000000
 -0.130054 -0.015017 -0.002383     12.000000
 -0.117048 -0.007509  0.002383     12.000000
 -0.104043  0.000000  0.007150     12.000000
 -0.091038  0.007509  0.011917     12.000000
 -0.078032  0.015017  0.016683     12.000000
 -0.065027  0.022526  0.021450     12.000000
  0.000000  0.075087  0.054817      6.000000
  0.013005  0.082595  0.059583     12.000000
  0.026011  0.090104  0.064350     12.000000
 -0.169070 -0.022526 -0.007150     12.000000
 -0.156065 -0.015017 -0.002383     12.000000
 -0.143059 -0.007509  0.002383     12.000000
 -0.130054  0.000000  0.007150     12.000000
 -0.117048  0.007509  0.011917     12.000000
 -0.104043  0.015017  0.016683     12.000000
 -0.091038  0.022526  0.021450     12.000000
 -0.078032  0.030035  0.026217     12.000000
  0.000000  0.090104  0.064350      6.000000
  0.013005  0.097613  0.069117     12.000000
 -0.182075 -0.015017 -0.002383     12.000000
 -0.169070 -0.007509  0.002383     12.000000
 -0.156065 -0.000000  0.007150     12.000000
 -0.143059  0.007509  0.011917     12.000000
 -0.130054  0.015017  0.016683     12.000000
 -0.117048  0.022526  0.021450     12.000000
 -0.104043  0.030035  0.026217     12.000000
 -0.091038  0.037543  0.030983     12.000000
  0.000000  0.105121  0.073883      6.000000
 -0.195081 -0.007509  0.002383     12.000000
 -0.182075 -0.000000  0.007150     12.000000
 -0.169070  0.007509  0.011917     12.000000
 -0.156065  0.015017  0.016683     12.000000
 -0.143059  0.022526  0.021450     12.000000
 -0.130054  0.030035  0.026217     12.000000
 -0.117048  0.037543  0.030983     12.000000
 -0.104043  0.045052  0.035750     12.000000
  0.000000 -0.120139 -0.069117      6.000000
  0.013005 -0.112630 -0.064350     12.000000
  0.026011 -0.105121 -0.059583     12.000000
  0.039016 -0.097613 -0.054817     12.000000
  0.052022 -0.090104 -0.050050     12.000000
  0.065027 -0.082595 -0.045283     12.000000
  0.078032 -0.075087 -0.040517     12.000000
  0.000000 -0.105121 -0.059583      6.000000
  0.013005 -0.097613 -0.054817     12.000000
  0.026011 -0.090104 -0.050050     12.000000
  0.039016 -0.082595 -0.045283     12.000000
  0.052022 -0.075087 -0.040517     12.000000
  0.065027 -0.067578 -0.035750     12.000000
  0.000000 -0.090104 -0.050050      6.000000
  0.013005 -0.082595 -0.045283     12.000000
  0.026011 -0.075087 -0.040517     12.000000
  0.039016 -0.067578 -0.035750     12.000000
  0.052022 -0.060069 -0.030983     12.000000
  0.000000 -0.075087 -0.040517      6.000000
  0.013005 -0.067578 -0.035750     12.000000
  0.026011 -0.060069 -0.030983     12.000000
  0.039016 -0.052561 -0.026217     12.000000
  0.000000 -0.060069 -0.030983      6.000000
  0.013005 -0.052561 -0.026217     12.000000
  0.026011 -0.045052 -0.021450     12.000000
  0.000000 -0.045052 -0.021450      6.000000
  0.013005 -0.037543 -0.016683     12.000000
  0.000000 -0.030035 -0.011917      6.000000
  0.000000  0.000000  0.021450      2.000000
  0.013005  0.007509  0.026217      6.000000
  0.026011  0.015017  0.030983      6.000000
  0.039016  0.022526  0.035750      6.000000
  0.052022  0.030035  0.040517      6.000000
  0.065027  0.037543  0.045283      6.000000
  0.078032  0.045052  0.050050      6.000000
 -0.117048 -0.067578 -0.021450      6.000000
 -0.104043 -0.060069 -0.016683      6.000000
 -0.091038 -0.052561 -0.011917      6.000000
 -0.078032 -0.045052 -0.007150      6.000000
 -0.065027 -0.037543 -0.002383      6.000000
 -0.052022 -0.030035  0.002383      6.000000
 -0.039016 -0.022526  0.007150      6.000000
  0.000000  0.015017  0.030983      6.000000
  0.013005  0.022526  0.035750     12.000000
  0.026011  0.030035  0.040517     12.000000
  0.039016  0.037543  0.045283     12.000000
  0.052022  0.045052  0.050050     12.000000
  0.065027  0.052561  0.054817     12.000000
 -0.130054 -0.060069 -0.016683     12.000000
 -0.117048 -0.052561 -0.011917     12.000000
 -0.104043 -0.045052 -0.007150     12.000000
 -0.091038 -0.037543 -0.002383     12.000000
 -0.078032 -0.030035  0.002383     12.000000
 -0.065027 -0.022526  0.007150     12.000000
 -0.052022 -0.015017  0.011917     12.000000
  0.000000  0.030035  0.040517      6.000000
  0.013005  0.037543  0.045283     12.000000
  0.026011  0.045052  0.050050     12.000000
  0.039016  0.052561  0.054817     12.000000
  0.052022  0.060069  0.059583     12.000000
 -0.143059 -0.052561 -0.011917     12.000000
 -0.130054 -0.045052 -0.007150     12.000000
 -0.117048 -0.037543 -0.002383     12.000000
 -0.104043 -0.030035  0.002383     12.000000
 -0.091038 -0.022526  0.007150     12.000000
 -0.078032 -0.015017  0.011917     12.000000
 -0.065027 -0.007509  0.016683     12.000000
  0.000000  0.045052  0.050050      6.000000
  0.013005  0.052561  0.054817     12.000000
  0.026011  0.060069  0.059583     12.000000
  0.039016  0.067578  0.064350     12.000000
 -0.156065 -0.045052 -0.007150     12.000000
 -0.143059 -0.037543 -0.002383     12.000000
 -0.130054 -0.030035  0.002383     12.000000
 -0.117048 -0.022526  0.007150     12.000000
 -0.104043 -0.015017  0.011917     12.000000
 -0.091038 -0.007509  0.016683     12.000000
 -0.078032  0.000000  0.021450     12.000000
  0.000000  0.060069  0.059583      6.000000
  0.013005  0.067578  0.064350     12.000000
  0.026011  0.075087  0.069117     12.000000
 -0.169070 -0.037543 -0.002383     12.000000
 -0.156065 -0.030035  0.002383     12.000000
 -0.143059 -0.022526  0.007150     12.000000
 -0.130054 -0.015017  0.011917     12.000000
 -0.117048 -0.007509  0.016683     12.000000
 -0.104043  0.000000  0.021450     12.000000
 -0.091038  0.007509  0.026217     12.000000
  0.000000  0.075087  0.069117      6.000000
  0.013005  0.082595  0.073883     12.000000
 -0.182075 -0.030035  0.002383     12.000000
 -0.169070 -0.022526  0.007150     12.000000
 -0.156065 -0.015017  0.011917     12.000000
 -0.143059 -0.007509  0.016683     12.000000
 -0.130054  0.000000  0.021450     12.000000
 -0.117048  0.007509  0.026217     12.000000
 -0.104043  0.015017  0.030983     12.000000
  0.000000  0.090104  0.078650      6.000000
 -0.195081 -0.022526  0.007150     12.000000
 -0.182075 -0.015017  0.011917     12.000000
 -0.169070 -0.007509  0.016683     12.000000
 -0.156065  0.000000  0.021450     12.000000
 -0.143059  0.007509  0.026217     12.000000
 -0.130054  0.015017  0.030983     12.000000
 -0.117048  0.022526  0.035750     12.000000
  0.000000 -0.135156 -0.064350      6.000000
  0.013005 -0.127647 -0.059583     12.000000
  0.026011 -0.120139 -0.054817     12.000000
  0.039016 -0.112630 -0.050050     12.000000
  0.052022 -0.105121 -0.045283     12.000000
  0.065027 -0.097613 -0.040517     12.000000
  0.000000 -0.120139 -0.054817      6.000000
  0.013005 -0.112630 -0.050050     12.000000
  0.026011 -0.105121 -0.045283     12.000000
  0.039016 -0.097613 -0.040517     12.000000
  0.052022 -0.090104 -0.035750     12.000000
  0.000000 -0.105121 -0.045283      6.000000
  0.013005 -0.097613 -0.040517     12.000000
  0.026011 -0.090104 -0.035750     12.000000
  0.039016 -0.082595 -0.030983     12.000000
  0.000000 -0.090104 -0.035750      6.000000
  0.013005 -0.082595 -0.030983     12.000000
  0.026011 -0.075087 -0.026217     12.000000
  0.000000 -0.075087 -0.026217      6.000000
  0.013005 -0.067578 -0.021450     12.000000
  0.000000 -0.060069 -0.016683      6.000000
  0.000000  0.000000  0.035750      2.000000
  0.013005  0.007509  0.040517      6.000000
  0.026011  0.015017  0.045283      6.000000
  0.039016  0.022526  0.050050      6.000000
  0.052022  0.030035  0.054817      6.000000
  0.065027  0.037543  0.059583      6.000000
 -0.130054 -0.075087 -0.011917      6.000000
 -0.117048 -0.067578 -0.007150      6.000000
 -0.104043 -0.060069 -0.002383      6.000000
 -0.091038 -0.052561  0.002383      6.000000
 -0.078032 -0.045052  0.007150      6.000000
 -0.065027 -0.037543  0.011917      6.000000
  0.000000  0.015017  0.045283      6.000000
  0.013005  0.022526  0.050050     12.000000
  0.026011  0.030035  0.054817     12.000000
  0.039016  0.037543  0.059583     12.000000
  0.052022  0.045052  0.064350     12.000000
 -0.143059 -0.067578 -0.007150     12.000000
 -0.130054 -0.060069 -0.002383     12.000000
 -0.117048 -0.052561  0.002383     12.000000
 -0.104043 -0.045052  0.007150     12.000000
 -0.091038 -0.037543  0.011917     12.000000
 -0.078032 -0.030035  0.016683     12.000000
  0.000000  0.030035  0.054817      6.000000
  0.013005  0.037543  0.059583     12.000000
  0.026011  0.045052  0.064350     12.000000
  0.039016  0.052561  0.069117     12.000000
 -0.156065 -0.060069 -0.002383     12.000000
 -0.143059 -0.052561  0.002383     12.000000
 -0.130054 -0.045052  0.007150     12.000000
 -0.117048 -0.037543  0.011917     12.000000
 -0.104043 -0.030035  0.016683     12.000000
 -0.091038 -0.022526  0.021450     12.000000
  0.000000  0.045052  0.064350      6.000000
  0.013005  0.052561  0.069117     12.000000
  0.026011  0.060069  0.073883     12.000000
 -0.169070 -0.052561  0.002383     12.000000
 -0.156065 -0.045052  0.007150     12.000000
 -0.143059 -0.037543  0.011917     12.000000
 -0.130054 -0.030035  0.016683     12.000000
 -0.117048 -0.022526  0.021450     12.000000
 -0.104043 -0.015017  0.026217     12.000000
  0.000000  0.060069  0.073883      6.000000
  0.013005  0.067578  0.078650     12.000000
 -0.182075 -0.045052  0.007150     12.000000
 -0.169070 -0.037543  0.011917     12.000000
 -0.156065 -0.030035  0.016683     12.000000
 -0.143059 -0.022526  0.021450     12.000000
 -0.130054 -0.015017  0.026217     12.000000
 -0.117048 -0.007509  0.030983     12.000000
  0.000000  0.075087  0.083417      6.000000
 -0.195081 -0.037543  0.011917     12.000000
 -0.182075 -0.030035  0.016683     12.000000
 -0.169070 -0.022526  0.021450     12.000000
 -0.156065 -0.015017  0.026217     12.000000
 -0.143059 -0.007509  0.030983     12.000000
 -0.130054  0.000000  0.035750     12.000000
  0.000000 -0.150173 -0.059583      6.000000
  0.013005 -0.142665 -0.054817     12.000000
  0.026011 -0.135156 -0.050050     12.000000
  0.039016 -0.127647 -0.045283     12.000000
  0.052022 -0.120139 -0.040517     12.000000
  0.000000 -0.135156 -0.050050      6.000000
  0.013005 -0.127647 -0.045283     12.000000
  0.026011 -0.120139 -0.040517     12.000000
  0.039016 -0.112630 -0.035750     12.000000
  0.000000 -0.120139 -0.040517      6.000000
  0.013005 -0.112630 -0.035750     12.000000
  0.026011 -0.105121 -0.030983     12.000000
  0.000000 -0.105121 -0.030983      6.000000
  0.013005 -0.097613 -0.026217     12.000000
  0.000000 -0.090104 -0.021450      6.000000
  0.000000  0.000000  0.050050      2.000000
  0.013005  0.007509  0.054817      6.000000
  0.026011  0.015017  0.059583      6.000000
  0.039016  0.022526  0.064350      6.000000
  0.052022  0.030035  0.069117      6.000000
 -0.143059 -0.082595 -0.002383      6.000000
 -0.130054 -0.075087  0.002383      6.000000
 -0.117048 -0.067578  0.007150      6.000000
 -0.104043 -0.060069  0.011917      6.000000
 -0.091038 -0.052561  0.016683      6.000000
  0.000000  0.015017  0.059583      6.000000
  0.013005  0.022526  0.064350     12.000000
  0.026011  0.030035  0.069117     12.000000
  0.039016  0.037543  0.073883     12.000000
 -0.156065 -0.075087  0.002383     12.000000
 -0.143059 -0.067578  0.007150     12.000000
 -0.130054 -0.060069  0.011917     12.000000
 -0.117048 -0.052561  0.016683     12.000000
 -0.104043 -0.045052  0.021450     12.000000
  0.000000  0.030035  0.069117      6.000000
  0.013005  0.037543  0.073883     12.000000
  0.026011  0.045052  0.078650     12.000000
 -0.169070 -0.067578  0.007150     12.000000
 -0.156065 -0.060069  0.011917     12.000000
 -0.143059 -0.052561  0.016683     12.000000
 -0.130054 -0.045052  0.021450     12.000000
 -0.117048 -0.037543  0.026217     12.000000
  0.000000  0.045052  0.078650      6.000000
  0.013005  0.052561  0.083417     12.000000
 -0.182075 -0.060069  0.011917     12.000000
 -0.169070 -0.052561  0.016683     12.000000
 -0.156065 -0.045052  0.021450     12.000000
 -0.143059 -0.037543  0.026217     12.000000
 -0.130054 -0.030035  0.030983     12.000000
  0.000000  0.060069  0.088183      6.000000
 -0.195081 -0.052561  0.016683     12.000000
 -0.182075 -0.045052  0.021450     12.000000
 -0.169070 -0.037543  0.026217     12.000000
 -0.156065 -0.030035  0.030983     12.000000
 -0.143059 -0.022526  0.035750     12.000000
  0.000000 -0.165191 -0.054817      6.000000
  0.013005 -0.157682 -0.050050     12.000000
  0.026011 -0.150173 -0.045283     12.000000
  0.039016 -0.142665 -0.040517     12.000000
  0.000000 -0.150173 -0.045283      6.000000
  0.013005 -0.142665 -0.040517     12.000000
  0.026011 -0.135156 -0.035750     12.000000
  0.000000 -0.135156 -0.035750      6.000000
  0.013005 -0.127647 -0.030983     12.000000
  0.000000 -0.120139 -0.026217      6.000000
  0.000000  0.000000  0.064350      2.000000
  0.013005  0.007509  0.069117      6.000000
  0.026011  0.015017  0.073883      6.000000
  0.039016  0.022526  0.078650      6.000000
 -0.156065 -0.090104  0.007150      6.000000
 -0.143059 -0.082595  0.011917      6.000000
 -0.130054 -0.075087  0.016683      6.000000
 -0.117048 -0.067578  0.021450      6.000000
  0.000000  0.015017  0.073883      6.000000
  0.013005  0.022526  0.078650     12.000000
  0.026011  0.030035  0.083417     12.000000
 -0.169070 -0.082595  0.011917     12.000000
 -0.156065 -0.075087  0.016683     12.000000
 -0.143059 -0.067578  0.021450     12.000000
 -0.130054 -0.060069  0.026217     12.000000
  0.000000  0.030035  0.083417      6.000000
  0.013005  0.037543  0.088183     12.000000
 -0.182075 -0.075087  0.016683     12.000000
 -0.169070 -0.067578  0.021450     12.000000
 -0.156065 -0.060069  0.026217     12.000000
 -0.143059 -0.052561  0.030983     12.000000
  0.000000  0.045052  0.092950      6.000000
 -0.195081 -0.067578  0.021450     12.000000
 -0.182075 -0.060069  0.026217     12.000000
 -0.169070 -0.052561  0.030983     12.000000
 -0.156065 -0.045052  0.035750     12.000000
  0.000000 -0.180208 -0.050050      6.000000
  0.013005 -0.172699 -0.045283     12.000000
  0.026011 -0.165191 -0.040517     12.000000
  0.000000 -0.165191 -0.040517      6.000000
  0.013005 -0.157682 -0.035750     12.000000
  0.000000 -0.150173 -0.030983      6.000000
  0.000000  0.000000  0.078650      2.000000
  0.013005  0.007509  0.083417      6.000000
  0.026011  0.015017  0.088183      6.000000
 -0.169070 -0.097613  0.016683      6.000000
 -0.156065 -0.090104  0.021450      6.000000
 -0.143059 -0.082595  0.026217      6.000000
  0.000000  0.015017  0.088183      6.000000
  0.013005  0.022526  0.092950     12.000000
 -0.182075 -0.090104  0.021450     12.000000
 -0.169070 -0.082595  0.026217     12.000000
 -0.156065 -0.075087  0.030983     12.000000
  0.000000  0.030035  0.097717      6.000000
 -0.195081 -0.082595  0.026217     12.000000
 -0.182075 -0.075087  0.030983     12.000000
 -0.169070 -0.067578  0.035750     12.000000
  0.000000 -0.195225 -0.045283      6.000000
  0.013005 -0.187717 -0.040517     12.000000
  0.000000 -0.180208 -0.035750      6.000000
  0.000000  0.000000  0.092950      2.000000
  0.013005  0.007509  0.097717      6.000000
 -0.182075 -0.105121  0.026217      6.000000
 -0.169070 -0.097613  0.030983      6.000000
  0.000000  0.015017  0.102483      6.000000
 -0.195081 -0.097613  0.030983     12.000000
 -0.182075 -0.090104  0.035750     12.000000
  0.000000 -0.210243 -0.040517      6.000000
  0.000000  0.000000  0.107250      2.000000
 -0.195081 -0.112630  0.035750      6.000000
 


--------------------------------------------------------------------------------------------------------




 Dimension of arrays:
   k-points           NKPTS =    408   k-points in BZ     NKDIM =    408   number of bands    NBANDS=     32
   number of dos      NEDOS =    301   number of ions     NIONS =     10
   non local maximal  LDIM  =      4   non local SUM 2l+1 LMDIM =      8
   total plane-waves  NPLWV =  74088
   max r-space proj   IRMAX =      1   max aug-charges    IRDMAX=  33182
   dimension x,y,z NGX =    42 NGY =   42 NGZ =   42
   dimension x,y,z NGXF=    84 NGYF=   84 NGZF=   84
   support grid    NGXF=    84 NGYF=   84 NGZF=   84
   ions per type =               4   6
   NGX,Y,Z   is equivalent  to a cutoff of  13.49, 13.49, 13.49 a.u.
   NGXF,Y,Z  is equivalent  to a cutoff of  26.97, 26.97, 26.97 a.u.

 SYSTEM =  unknown system                          
 POSCAR =  Al  O                                   

 Startparameter for this run:
   NWRITE =      2    write-flag & timer
   PREC   = accura    normal or accurate (medium, high low for compatibility)
   ISTART =      0    job   : 0-new  1-cont  2-samecut
   ICHARG =      2    charge: 1-file 2-atom 10-const
   ISPIN  =      1    spin polarized calculation?
   LNONCOLLINEAR =      F non collinear calculations
   LSORBIT =      F    spin-orbit coupling
   INIWAV =      1    electr: 0-lowe 1-rand  2-diag
   LASPH  =      F    aspherical Exc in radial PAW
   METAGGA=      F    non-selfconsistent MetaGGA calc.

 Electronic Relaxation 1
   ENCUT  =  600.0 eV  44.10 Ry    6.64 a.u.  10.34 10.34 10.34*2*pi/ulx,y,z
   ENINI  =  600.0     initial cutoff
   ENAUG  =  605.4 eV  augmentation charge cutoff
   NELM   =     60;   NELMIN=  2; NELMDL=-12     # of ELM steps 
   EDIFF  = 0.1E-05   stopping-criterion for ELM
   LREAL  =      F    real-space projection
   NLSPLINE    = F    spline interpolate recip. space projectors
   LCOMPAT=      F    compatible to vasp.4.4
   GGA_COMPAT  = T    GGA compatible to vasp.4.4-vasp.4.6
   LMAXPAW     = -100 max onsite density
   LMAXMIX     =    2 max onsite mixed and CHGCAR
   VOSKOWN=      0    Vosko Wilk Nusair interpolation
   ROPT   =    0.00000   0.00000
 Ionic relaxation
   EDIFFG = -.1E-02   stopping-criterion for IOM
   NSW    =     50    number of steps for IOM
   NBLOCK =      1;   KBLOCK =     50    inner block; outer block 
   IBRION =      1    ionic relax: 0-MD 1-quasi-New 2-CG
   NFREE  =      0    steps in history (QN), initial steepest desc. (CG)
   ISIF   =      3    stress and relaxation
   IWAVPR =     11    prediction:  0-non 1-charg 2-wave 3-comb
   ISYM   =      2    0-nonsym 1-usesym 2-fastsym
   LCORR  =      T    Harris-Foulkes like correction to forces

   POTIM  = 0.5000    time-step for ionic-motion
   TEIN   =    0.0    initial temperature
   TEBEG  =    0.0;   TEEND  =   0.0 temperature during run
   SMASS  =  -3.00    Nose mass-parameter (am)
   estimated Nose-frequenzy (Omega)   =  0.10E-29 period in steps =****** mass=  -0.612E-27a.u.
   SCALEE = 1.0000    scale energy and forces
   NPACO  =    256;   APACO  = 16.0  distance and # of slots for P.C.
   PSTRESS=    0.0 pullay stress

  Mass of Ions in am
   POMASS =  26.98 16.00
  Ionic Valenz
   ZVAL   =   3.00  6.00
  Atomic Wigner-Seitz radii
   RWIGS  =  -1.00 -1.00
  virtual crystal weights 
   VCA    =   1.00  1.00
   NELECT =      48.0000    total number of electrons
   NUPDOWN=      -1.0000    fix difference up-down

 DOS related values:
   EMIN   =  10.00;   EMAX   =-10.00  energy-range for DOS
   EFERMI =   0.00
   ISMEAR =     0;   SIGMA  =   0.05  broadening in eV -4-tet -1-fermi 0-gaus

 Electronic relaxation 2 (details)
   IALGO  =     48    algorithm
   LDIAG  =      T    sub-space diagonalisation (order eigenvalues)
   LSUBROT=      F    optimize rotation matrix (better conditioning)
   TURBO    =      0    0=normal 1=particle mesh
   IRESTART =      0    0=no restart 2=restart with 2 vectors
   NREBOOT  =      0    no. of reboots
   NMIN     =      0    reboot dimension
   EREF     =   0.00    reference energy to select bands
   IMIX   =      4    mixing-type and parameters
     AMIX     =   0.40;   BMIX     =  1.00
     AMIX_MAG =   1.60;   BMIX_MAG =  1.00
     AMIN     =   0.10
     WC   =   100.;   INIMIX=   1;  MIXPRE=   1;  MAXMIX= -45

 Intra band minimization:
   WEIMIN = 0.0010     energy-eigenvalue tresh-hold
   EBREAK =  0.78E-08  absolut break condition
   DEPER  =   0.30     relativ break condition  

   TIME   =   0.40     timestep for ELM

  volume/ion in A,a.u.               =       8.74        58.99
  Fermi-wavevector in a.u.,A,eV,Ry     =   1.340580  2.533328 24.451756  1.797153
  Thomas-Fermi vector in A             =   2.468881
 
 Write flags
   LWAVE        =      F    write WAVECAR
   LDOWNSAMPLE  =      F    k-point downsampling of WAVECAR
   LCHARG       =      F    write CHGCAR
   LVTOT        =      F    write LOCPOT, total local potential
   LVHAR        =      F    write LOCPOT, Hartree potential only
   LELF         =      F    write electronic localiz. function (ELF)
   LORBIT       =      0    0 simple, 1 ext, 2 COOP (PROOUT), +10 PAW based schemes


 Dipole corrections
   LMONO  =      F    monopole corrections only (constant potential shift)
   LDIPOL =      F    correct potential (dipole corrections)
   IDIPOL =      0    1-x, 2-y, 3-z, 4-all directions 
   EPSILON=  1.0000000 bulk dielectric constant

 Exchange correlation treatment:
   GGA     =    --    GGA type
   LEXCH   =     8    internal setting for exchange type
   VOSKOWN=      0    Vosko Wilk Nusair interpolation
   LHFCALC =     F    Hartree Fock is set to
   LHFONE  =     F    Hartree Fock one center treatment
   AEXX    =    0.0000 exact exchange contribution

 Linear response parameters
   LEPSILON=     F    determine dielectric tensor
   LRPA    =     F    only Hartree local field effects (RPA)
   LNABLA  =     F    use nabla operator in PAW spheres
   LVEL    =     F    velocity operator in full k-point grid
   LINTERFAST=   F  fast interpolation
   KINTER  =     0    interpolate to denser k-point grid
   CSHIFT  =0.1000    complex shift for real part using Kramers Kronig
   OMEGAMAX=  -1.0    maximum frequency
   DEG_THRESHOLD= 0.2000000E-02 threshold for treating states as degnerate
   RTIME   =   -0.100 relaxation time in fs
  (WPLASMAI=    0.000 imaginary part of plasma frequency in eV, 0.658/RTIME)
   DFIELD  = 0.0000000 0.0000000 0.0000000 field for delta impulse in time
 
 Orbital magnetization related:
   ORBITALMAG=     F  switch on orbital magnetization
   LCHIMAG   =     F  perturbation theory with respect to B field
   DQ        =  0.001000  dq finite difference perturbation B field
   LLRAUG    =     F  two centre corrections for induced B field



--------------------------------------------------------------------------------------------------------


 quasi-Newton-method for relaxation of ions
 charge density and potential will be updated during run
 non-spin polarized calculation
 RMM-DIIS sequential band-by-band
 perform sub-space diagonalisation
    before iterative eigenvector-optimisation
 modified Broyden-mixing scheme, WC =      100.0
 initial mixing is a Kerker type mixing with AMIX =  0.4000 and BMIX =      1.0000
 Hartree-type preconditioning will be used
 using additional bands            8
 reciprocal scheme for non local part
 use partial core corrections
 calculate Harris-corrections to forces 
   (improved forces if not selfconsistent)
 use gradient corrections 
 use of overlap-Matrix (Vanderbilt PP)
 Gauss-broadening in eV      SIGMA  =   0.05


--------------------------------------------------------------------------------------------------------


  energy-cutoff  :      600.00
  volume of cell :       87.42
      direct lattice vectors                 reciprocal lattice vectors
     2.402850517  1.387286393  4.370628333     0.208086186  0.120138616  0.076266685
    -2.402850517  1.387286393  4.370628333    -0.208086186  0.120138616  0.076266685
     0.000000000 -2.774572785  4.370628333     0.000000000 -0.240277231  0.076266685

  length of vectors
     5.176934051  5.176934051  5.176934051     0.252090767  0.252090767  0.252090767


 
 k-points in units of 2pi/SCALE and weight: A                                       
   0.00000000  0.00000000  0.00715000       0.000
   0.01300539  0.00750866  0.01191667       0.001
   0.02601077  0.01501733  0.01668334       0.001
   0.03901616  0.02252599  0.02145001       0.001
   0.05202155  0.03003465  0.02621667       0.001
   0.06502693  0.03754332  0.03098334       0.001
   0.07803232  0.04505198  0.03575001       0.001
   0.09103771  0.05256064  0.04051668       0.001
  -0.10404309 -0.06006931 -0.03098334       0.001
  -0.09103771 -0.05256064 -0.02621667       0.001
  -0.07803232 -0.04505198 -0.02145001       0.001
  -0.06502693 -0.03754332 -0.01668334       0.001
  -0.05202155 -0.03003465 -0.01191667       0.001
  -0.03901616 -0.02252599 -0.00715000       0.001
  -0.02601077 -0.01501733 -0.00238333       0.001
  -0.01300539 -0.00750866  0.00238333       0.001
   0.00000000  0.01501733  0.01668334       0.001
   0.01300539  0.02252599  0.02145001       0.003
   0.02601077  0.03003465  0.02621667       0.003
   0.03901616  0.03754332  0.03098334       0.003
   0.05202155  0.04505198  0.03575001       0.003
   0.06502693  0.05256064  0.04051668       0.003
   0.07803232  0.06006931  0.04528334       0.003
  -0.11704848 -0.05256064 -0.02621667       0.003
  -0.10404309 -0.04505198 -0.02145001       0.003
  -0.09103771 -0.03754332 -0.01668334       0.003
  -0.07803232 -0.03003465 -0.01191667       0.003
  -0.06502693 -0.02252599 -0.00715000       0.003
  -0.05202155 -0.01501733 -0.00238333       0.003
  -0.03901616 -0.00750866  0.00238333       0.003
  -0.02601077  0.00000000  0.00715000       0.003
   0.00000000  0.03003465  0.02621667       0.001
   0.01300539  0.03754332  0.03098334       0.003
   0.02601077  0.04505198  0.03575001       0.003
   0.03901616  0.05256064  0.04051668       0.003
   0.05202155  0.06006931  0.04528334       0.003
   0.06502693  0.06757797  0.05005001       0.003
  -0.13005387 -0.04505198 -0.02145001       0.003
  -0.11704848 -0.03754332 -0.01668334       0.003
  -0.10404309 -0.03003465 -0.01191667       0.003
  -0.09103771 -0.02252599 -0.00715000       0.003
  -0.07803232 -0.01501733 -0.00238333       0.003
  -0.06502693 -0.00750866  0.00238333       0.003
  -0.05202155 -0.00000000  0.00715000       0.003
  -0.03901616  0.00750866  0.01191667       0.003
   0.00000000  0.04505198  0.03575001       0.001
   0.01300539  0.05256064  0.04051668       0.003
   0.02601077  0.06006931  0.04528334       0.003
   0.03901616  0.06757797  0.05005001       0.003
   0.05202155  0.07508663  0.05481668       0.003
  -0.14305925 -0.03754332 -0.01668334       0.003
  -0.13005387 -0.03003465 -0.01191667       0.003
  -0.11704848 -0.02252599 -0.00715000       0.003
  -0.10404309 -0.01501733 -0.00238333       0.003
  -0.09103771 -0.00750866  0.00238333       0.003
  -0.07803232  0.00000000  0.00715000       0.003
  -0.06502693  0.00750866  0.01191667       0.003
  -0.05202155  0.01501733  0.01668334       0.003
   0.00000000  0.06006931  0.04528334       0.001
   0.01300539  0.06757797  0.05005001       0.003
   0.02601077  0.07508663  0.05481668       0.003
   0.03901616  0.08259530  0.05958335       0.003
  -0.15606464 -0.03003465 -0.01191667       0.003
  -0.14305925 -0.02252599 -0.00715000       0.003
  -0.13005387 -0.01501733 -0.00238333       0.003
  -0.11704848 -0.00750866  0.00238333       0.003
  -0.10404309  0.00000000  0.00715000       0.003
  -0.09103771  0.00750866  0.01191667       0.003
  -0.07803232  0.01501733  0.01668334       0.003
  -0.06502693  0.02252599  0.02145001       0.003
   0.00000000  0.07508663  0.05481668       0.001
   0.01300539  0.08259530  0.05958335       0.003
   0.02601077  0.09010396  0.06435002       0.003
  -0.16907003 -0.02252599 -0.00715000       0.003
  -0.15606464 -0.01501733 -0.00238333       0.003
  -0.14305925 -0.00750866  0.00238333       0.003
  -0.13005387  0.00000000  0.00715000       0.003
  -0.11704848  0.00750866  0.01191667       0.003
  -0.10404309  0.01501733  0.01668334       0.003
  -0.09103771  0.02252599  0.02145001       0.003
  -0.07803232  0.03003465  0.02621667       0.003
   0.00000000  0.09010396  0.06435002       0.001
   0.01300539  0.09761263  0.06911668       0.003
  -0.18207541 -0.01501733 -0.00238333       0.003
  -0.16907003 -0.00750866  0.00238333       0.003
  -0.15606464 -0.00000000  0.00715000       0.003
  -0.14305925  0.00750866  0.01191667       0.003
  -0.13005387  0.01501733  0.01668334       0.003
  -0.11704848  0.02252599  0.02145001       0.003
  -0.10404309  0.03003465  0.02621667       0.003
  -0.09103771  0.03754332  0.03098334       0.003
   0.00000000  0.10512129  0.07388335       0.001
  -0.19508080 -0.00750866  0.00238333       0.003
  -0.18207541 -0.00000000  0.00715000       0.003
  -0.16907003  0.00750866  0.01191667       0.003
  -0.15606464  0.01501733  0.01668334       0.003
  -0.14305925  0.02252599  0.02145001       0.003
  -0.13005387  0.03003465  0.02621667       0.003
  -0.11704848  0.03754332  0.03098334       0.003
  -0.10404309  0.04505198  0.03575001       0.003
   0.00000000 -0.12013862 -0.06911668       0.001
   0.01300539 -0.11262995 -0.06435002       0.003
   0.02601077 -0.10512129 -0.05958335       0.003
   0.03901616 -0.09761263 -0.05481668       0.003
   0.05202155 -0.09010396 -0.05005001       0.003
   0.06502693 -0.08259530 -0.04528334       0.003
   0.07803232 -0.07508663 -0.04051668       0.003
   0.00000000 -0.10512129 -0.05958335       0.001
   0.01300539 -0.09761263 -0.05481668       0.003
   0.02601077 -0.09010396 -0.05005001       0.003
   0.03901616 -0.08259530 -0.04528334       0.003
   0.05202155 -0.07508663 -0.04051668       0.003
   0.06502693 -0.06757797 -0.03575001       0.003
   0.00000000 -0.09010396 -0.05005001       0.001
   0.01300539 -0.08259530 -0.04528334       0.003
   0.02601077 -0.07508663 -0.04051668       0.003
   0.03901616 -0.06757797 -0.03575001       0.003
   0.05202155 -0.06006931 -0.03098334       0.003
   0.00000000 -0.07508663 -0.04051668       0.001
   0.01300539 -0.06757797 -0.03575001       0.003
   0.02601077 -0.06006931 -0.03098334       0.003
   0.03901616 -0.05256064 -0.02621667       0.003
   0.00000000 -0.06006931 -0.03098334       0.001
   0.01300539 -0.05256064 -0.02621667       0.003
   0.02601077 -0.04505198 -0.02145001       0.003
   0.00000000 -0.04505198 -0.02145001       0.001
   0.01300539 -0.03754332 -0.01668334       0.003
   0.00000000 -0.03003465 -0.01191667       0.001
   0.00000000  0.00000000  0.02145001       0.000
   0.01300539  0.00750866  0.02621667       0.001
   0.02601077  0.01501733  0.03098334       0.001
   0.03901616  0.02252599  0.03575001       0.001
   0.05202155  0.03003465  0.04051668       0.001
   0.06502693  0.03754332  0.04528334       0.001
   0.07803232  0.04505198  0.05005001       0.001
  -0.11704848 -0.06757797 -0.02145001       0.001
  -0.10404309 -0.06006931 -0.01668334       0.001
  -0.09103771 -0.05256064 -0.01191667       0.001
  -0.07803232 -0.04505198 -0.00715000       0.001
  -0.06502693 -0.03754332 -0.00238333       0.001
  -0.05202155 -0.03003465  0.00238333       0.001
  -0.03901616 -0.02252599  0.00715000       0.001
   0.00000000  0.01501733  0.03098334       0.001
   0.01300539  0.02252599  0.03575001       0.003
   0.02601077  0.03003465  0.04051668       0.003
   0.03901616  0.03754332  0.04528334       0.003
   0.05202155  0.04505198  0.05005001       0.003
   0.06502693  0.05256064  0.05481668       0.003
  -0.13005387 -0.06006931 -0.01668334       0.003
  -0.11704848 -0.05256064 -0.01191667       0.003
  -0.10404309 -0.04505198 -0.00715000       0.003
  -0.09103771 -0.03754332 -0.00238333       0.003
  -0.07803232 -0.03003465  0.00238333       0.003
  -0.06502693 -0.02252599  0.00715000       0.003
  -0.05202155 -0.01501733  0.01191667       0.003
   0.00000000  0.03003465  0.04051668       0.001
   0.01300539  0.03754332  0.04528334       0.003
   0.02601077  0.04505198  0.05005001       0.003
   0.03901616  0.05256064  0.05481668       0.003
   0.05202155  0.06006931  0.05958335       0.003
  -0.14305925 -0.05256064 -0.01191667       0.003
  -0.13005387 -0.04505198 -0.00715000       0.003
  -0.11704848 -0.03754332 -0.00238333       0.003
  -0.10404309 -0.03003465  0.00238333       0.003
  -0.09103771 -0.02252599  0.00715000       0.003
  -0.07803232 -0.01501733  0.01191667       0.003
  -0.06502693 -0.00750866  0.01668334       0.003
   0.00000000  0.04505198  0.05005001       0.001
   0.01300539  0.05256064  0.05481668       0.003
   0.02601077  0.06006931  0.05958335       0.003
   0.03901616  0.06757797  0.06435002       0.003
  -0.15606464 -0.04505198 -0.00715000       0.003
  -0.14305925 -0.03754332 -0.00238333       0.003
  -0.13005387 -0.03003465  0.00238333       0.003
  -0.11704848 -0.02252599  0.00715000       0.003
  -0.10404309 -0.01501733  0.01191667       0.003
  -0.09103771 -0.00750866  0.01668334       0.003
  -0.07803232  0.00000000  0.02145001       0.003
   0.00000000  0.06006931  0.05958335       0.001
   0.01300539  0.06757797  0.06435002       0.003
   0.02601077  0.07508663  0.06911668       0.003
  -0.16907003 -0.03754332 -0.00238333       0.003
  -0.15606464 -0.03003465  0.00238333       0.003
  -0.14305925 -0.02252599  0.00715000       0.003
  -0.13005387 -0.01501733  0.01191667       0.003
  -0.11704848 -0.00750866  0.01668334       0.003
  -0.10404309  0.00000000  0.02145001       0.003
  -0.09103771  0.00750866  0.02621667       0.003
   0.00000000  0.07508663  0.06911668       0.001
   0.01300539  0.08259530  0.07388335       0.003
  -0.18207541 -0.03003465  0.00238333       0.003
  -0.16907003 -0.02252599  0.00715000       0.003
  -0.15606464 -0.01501733  0.01191667       0.003
  -0.14305925 -0.00750866  0.01668334       0.003
  -0.13005387  0.00000000  0.02145001       0.003
  -0.11704848  0.00750866  0.02621667       0.003
  -0.10404309  0.01501733  0.03098334       0.003
   0.00000000  0.09010396  0.07865002       0.001
  -0.19508080 -0.02252599  0.00715000       0.003
  -0.18207541 -0.01501733  0.01191667       0.003
  -0.16907003 -0.00750866  0.01668334       0.003
  -0.15606464  0.00000000  0.02145001       0.003
  -0.14305925  0.00750866  0.02621667       0.003
  -0.13005387  0.01501733  0.03098334       0.003
  -0.11704848  0.02252599  0.03575001       0.003
   0.00000000 -0.13515594 -0.06435002       0.001
   0.01300539 -0.12764728 -0.05958335       0.003
   0.02601077 -0.12013862 -0.05481668       0.003
   0.03901616 -0.11262995 -0.05005001       0.003
   0.05202155 -0.10512129 -0.04528334       0.003
   0.06502693 -0.09761263 -0.04051668       0.003
   0.00000000 -0.12013862 -0.05481668       0.001
   0.01300539 -0.11262995 -0.05005001       0.003
   0.02601077 -0.10512129 -0.04528334       0.003
   0.03901616 -0.09761263 -0.04051668       0.003
   0.05202155 -0.09010396 -0.03575001       0.003
   0.00000000 -0.10512129 -0.04528334       0.001
   0.01300539 -0.09761263 -0.04051668       0.003
   0.02601077 -0.09010396 -0.03575001       0.003
   0.03901616 -0.08259530 -0.03098334       0.003
   0.00000000 -0.09010396 -0.03575001       0.001
   0.01300539 -0.08259530 -0.03098334       0.003
   0.02601077 -0.07508663 -0.02621667       0.003
   0.00000000 -0.07508663 -0.02621667       0.001
   0.01300539 -0.06757797 -0.02145001       0.003
   0.00000000 -0.06006931 -0.01668334       0.001
   0.00000000  0.00000000  0.03575001       0.000
   0.01300539  0.00750866  0.04051668       0.001
   0.02601077  0.01501733  0.04528334       0.001
   0.03901616  0.02252599  0.05005001       0.001
   0.05202155  0.03003465  0.05481668       0.001
   0.06502693  0.03754332  0.05958335       0.001
  -0.13005387 -0.07508663 -0.01191667       0.001
  -0.11704848 -0.06757797 -0.00715000       0.001
  -0.10404309 -0.06006931 -0.00238333       0.001
  -0.09103771 -0.05256064  0.00238333       0.001
  -0.07803232 -0.04505198  0.00715000       0.001
  -0.06502693 -0.03754332  0.01191667       0.001
   0.00000000  0.01501733  0.04528334       0.001
   0.01300539  0.02252599  0.05005001       0.003
   0.02601077  0.03003465  0.05481668       0.003
   0.03901616  0.03754332  0.05958335       0.003
   0.05202155  0.04505198  0.06435002       0.003
  -0.14305925 -0.06757797 -0.00715000       0.003
  -0.13005387 -0.06006931 -0.00238333       0.003
  -0.11704848 -0.05256064  0.00238333       0.003
  -0.10404309 -0.04505198  0.00715000       0.003
  -0.09103771 -0.03754332  0.01191667       0.003
  -0.07803232 -0.03003465  0.01668334       0.003
   0.00000000  0.03003465  0.05481668       0.001
   0.01300539  0.03754332  0.05958335       0.003
   0.02601077  0.04505198  0.06435002       0.003
   0.03901616  0.05256064  0.06911668       0.003
  -0.15606464 -0.06006931 -0.00238333       0.003
  -0.14305925 -0.05256064  0.00238333       0.003
  -0.13005387 -0.04505198  0.00715000       0.003
  -0.11704848 -0.03754332  0.01191667       0.003
  -0.10404309 -0.03003465  0.01668334       0.003
  -0.09103771 -0.02252599  0.02145001       0.003
   0.00000000  0.04505198  0.06435002       0.001
   0.01300539  0.05256064  0.06911668       0.003
   0.02601077  0.06006931  0.07388335       0.003
  -0.16907003 -0.05256064  0.00238333       0.003
  -0.15606464 -0.04505198  0.00715000       0.003
  -0.14305925 -0.03754332  0.01191667       0.003
  -0.13005387 -0.03003465  0.01668334       0.003
  -0.11704848 -0.02252599  0.02145001       0.003
  -0.10404309 -0.01501733  0.02621667       0.003
   0.00000000  0.06006931  0.07388335       0.001
   0.01300539  0.06757797  0.07865002       0.003
  -0.18207541 -0.04505198  0.00715000       0.003
  -0.16907003 -0.03754332  0.01191667       0.003
  -0.15606464 -0.03003465  0.01668334       0.003
  -0.14305925 -0.02252599  0.02145001       0.003
  -0.13005387 -0.01501733  0.02621667       0.003
  -0.11704848 -0.00750866  0.03098334       0.003
   0.00000000  0.07508663  0.08341669       0.001
  -0.19508080 -0.03754332  0.01191667       0.003
  -0.18207541 -0.03003465  0.01668334       0.003
  -0.16907003 -0.02252599  0.02145001       0.003
  -0.15606464 -0.01501733  0.02621667       0.003
  -0.14305925 -0.00750866  0.03098334       0.003
  -0.13005387  0.00000000  0.03575001       0.003
   0.00000000 -0.15017327 -0.05958335       0.001
   0.01300539 -0.14266461 -0.05481668       0.003
   0.02601077 -0.13515594 -0.05005001       0.003
   0.03901616 -0.12764728 -0.04528334       0.003
   0.05202155 -0.12013862 -0.04051668       0.003
   0.00000000 -0.13515594 -0.05005001       0.001
   0.01300539 -0.12764728 -0.04528334       0.003
   0.02601077 -0.12013862 -0.04051668       0.003
   0.03901616 -0.11262995 -0.03575001       0.003
   0.00000000 -0.12013862 -0.04051668       0.001
   0.01300539 -0.11262995 -0.03575001       0.003
   0.02601077 -0.10512129 -0.03098334       0.003
   0.00000000 -0.10512129 -0.03098334       0.001
   0.01300539 -0.09761263 -0.02621667       0.003
   0.00000000 -0.09010396 -0.02145001       0.001
   0.00000000  0.00000000  0.05005001       0.000
   0.01300539  0.00750866  0.05481668       0.001
   0.02601077  0.01501733  0.05958335       0.001
   0.03901616  0.02252599  0.06435002       0.001
   0.05202155  0.03003465  0.06911668       0.001
  -0.14305925 -0.08259530 -0.00238333       0.001
  -0.13005387 -0.07508663  0.00238333       0.001
  -0.11704848 -0.06757797  0.00715000       0.001
  -0.10404309 -0.06006931  0.01191667       0.001
  -0.09103771 -0.05256064  0.01668334       0.001
   0.00000000  0.01501733  0.05958335       0.001
   0.01300539  0.02252599  0.06435002       0.003
   0.02601077  0.03003465  0.06911668       0.003
   0.03901616  0.03754332  0.07388335       0.003
  -0.15606464 -0.07508663  0.00238333       0.003
  -0.14305925 -0.06757797  0.00715000       0.003
  -0.13005387 -0.06006931  0.01191667       0.003
  -0.11704848 -0.05256064  0.01668334       0.003
  -0.10404309 -0.04505198  0.02145001       0.003
   0.00000000  0.03003465  0.06911668       0.001
   0.01300539  0.03754332  0.07388335       0.003
   0.02601077  0.04505198  0.07865002       0.003
  -0.16907003 -0.06757797  0.00715000       0.003
  -0.15606464 -0.06006931  0.01191667       0.003
  -0.14305925 -0.05256064  0.01668334       0.003
  -0.13005387 -0.04505198  0.02145001       0.003
  -0.11704848 -0.03754332  0.02621667       0.003
   0.00000000  0.04505198  0.07865002       0.001
   0.01300539  0.05256064  0.08341669       0.003
  -0.18207541 -0.06006931  0.01191667       0.003
  -0.16907003 -0.05256064  0.01668334       0.003
  -0.15606464 -0.04505198  0.02145001       0.003
  -0.14305925 -0.03754332  0.02621667       0.003
  -0.13005387 -0.03003465  0.03098334       0.003
   0.00000000  0.06006931  0.08818335       0.001
  -0.19508080 -0.05256064  0.01668334       0.003
  -0.18207541 -0.04505198  0.02145001       0.003
  -0.16907003 -0.03754332  0.02621667       0.003
  -0.15606464 -0.03003465  0.03098334       0.003
  -0.14305925 -0.02252599  0.03575001       0.003
   0.00000000 -0.16519060 -0.05481668       0.001
   0.01300539 -0.15768193 -0.05005001       0.003
   0.02601077 -0.15017327 -0.04528334       0.003
   0.03901616 -0.14266461 -0.04051668       0.003
   0.00000000 -0.15017327 -0.04528334       0.001
   0.01300539 -0.14266461 -0.04051668       0.003
   0.02601077 -0.13515594 -0.03575001       0.003
   0.00000000 -0.13515594 -0.03575001       0.001
   0.01300539 -0.12764728 -0.03098334       0.003
   0.00000000 -0.12013862 -0.02621667       0.001
   0.00000000  0.00000000  0.06435002       0.000
   0.01300539  0.00750866  0.06911668       0.001
   0.02601077  0.01501733  0.07388335       0.001
   0.03901616  0.02252599  0.07865002       0.001
  -0.15606464 -0.09010396  0.00715000       0.001
  -0.14305925 -0.08259530  0.01191667       0.001
  -0.13005387 -0.07508663  0.01668334       0.001
  -0.11704848 -0.06757797  0.02145001       0.001
   0.00000000  0.01501733  0.07388335       0.001
   0.01300539  0.02252599  0.07865002       0.003
   0.02601077  0.03003465  0.08341669       0.003
  -0.16907003 -0.08259530  0.01191667       0.003
  -0.15606464 -0.07508663  0.01668334       0.003
  -0.14305925 -0.06757797  0.02145001       0.003
  -0.13005387 -0.06006931  0.02621667       0.003
   0.00000000  0.03003465  0.08341669       0.001
   0.01300539  0.03754332  0.08818335       0.003
  -0.18207541 -0.07508663  0.01668334       0.003
  -0.16907003 -0.06757797  0.02145001       0.003
  -0.15606464 -0.06006931  0.02621667       0.003
  -0.14305925 -0.05256064  0.03098334       0.003
   0.00000000  0.04505198  0.09295002       0.001
  -0.19508080 -0.06757797  0.02145001       0.003
  -0.18207541 -0.06006931  0.02621667       0.003
  -0.16907003 -0.05256064  0.03098334       0.003
  -0.15606464 -0.04505198  0.03575001       0.003
   0.00000000 -0.18020792 -0.05005001       0.001
   0.01300539 -0.17269926 -0.04528334       0.003
   0.02601077 -0.16519060 -0.04051668       0.003
   0.00000000 -0.16519060 -0.04051668       0.001
   0.01300539 -0.15768193 -0.03575001       0.003
   0.00000000 -0.15017327 -0.03098334       0.001
   0.00000000  0.00000000  0.07865002       0.000
   0.01300539  0.00750866  0.08341669       0.001
   0.02601077  0.01501733  0.08818335       0.001
  -0.16907003 -0.09761263  0.01668334       0.001
  -0.15606464 -0.09010396  0.02145001       0.001
  -0.14305925 -0.08259530  0.02621667       0.001
   0.00000000  0.01501733  0.08818335       0.001
   0.01300539  0.02252599  0.09295002       0.003
  -0.18207541 -0.09010396  0.02145001       0.003
  -0.16907003 -0.08259530  0.02621667       0.003
  -0.15606464 -0.07508663  0.03098334       0.003
   0.00000000  0.03003465  0.09771669       0.001
  -0.19508080 -0.08259530  0.02621667       0.003
  -0.18207541 -0.07508663  0.03098334       0.003
  -0.16907003 -0.06757797  0.03575001       0.003
   0.00000000 -0.19522525 -0.04528334       0.001
   0.01300539 -0.18771659 -0.04051668       0.003
   0.00000000 -0.18020792 -0.03575001       0.001
   0.00000000  0.00000000  0.09295002       0.000
   0.01300539  0.00750866  0.09771669       0.001
  -0.18207541 -0.10512129  0.02621667       0.001
  -0.16907003 -0.09761263  0.03098334       0.001
   0.00000000  0.01501733  0.10248336       0.001
  -0.19508080 -0.09761263  0.03098334       0.003
  -0.18207541 -0.09010396  0.03575001       0.003
   0.00000000 -0.21024258 -0.04051668       0.001
   0.00000000  0.00000000  0.10725003       0.000
  -0.19508080 -0.11262995  0.03575001       0.001
 
 k-points in reciprocal lattice and weights: A                                       
   0.03125000  0.03125000  0.03125000       0.000
   0.09375000  0.03125000  0.03125000       0.001
   0.15625000  0.03125000  0.03125000       0.001
   0.21875000  0.03125000  0.03125000       0.001
   0.28125000  0.03125000  0.03125000       0.001
   0.34375000  0.03125000  0.03125000       0.001
   0.40625000  0.03125000  0.03125000       0.001
   0.46875000  0.03125000  0.03125000       0.001
  -0.46875000  0.03125000  0.03125000       0.001
  -0.40625000  0.03125000  0.03125000       0.001
  -0.34375000  0.03125000  0.03125000       0.001
  -0.28125000  0.03125000  0.03125000       0.001
  -0.21875000  0.03125000  0.03125000       0.001
  -0.15625000  0.03125000  0.03125000       0.001
  -0.09375000  0.03125000  0.03125000       0.001
  -0.03125000  0.03125000  0.03125000       0.001
   0.09375000  0.09375000  0.03125000       0.001
   0.15625000  0.09375000  0.03125000       0.003
   0.21875000  0.09375000  0.03125000       0.003
   0.28125000  0.09375000  0.03125000       0.003
   0.34375000  0.09375000  0.03125000       0.003
   0.40625000  0.09375000  0.03125000       0.003
   0.46875000  0.09375000  0.03125000       0.003
[...]
     21       5.3871      2.00000
     22       5.3871      2.00000
     23       5.5686      2.00000
     24       5.5686      2.00000
     25      13.6932      0.00000
     26      14.5435      0.00000
     27      16.3822      0.00000
     28      17.0391      0.00000
     29      18.0132      0.00000
     30      18.0445      0.00000
     31      18.1936      0.00000
     32      18.3137      0.00000

 k-point   400 :       0.4688    0.4063    0.4063
  band No.  band energies     occupation 
      1     -12.4710      2.00000
      2     -11.9835      2.00000
      3     -10.6987      2.00000
      4     -10.6167      2.00000
      5     -10.5513      2.00000
      6     -10.4847      2.00000
      7       0.2082      2.00000
      8       0.4434      2.00000
      9       1.0668      2.00000
     10       1.2119      2.00000
     11       1.4684      2.00000
     12       1.6829      2.00000
     13       1.9180      2.00000
     14       2.4425      2.00000
     15       3.3982      2.00000
     16       3.4409      2.00000
     17       3.8200      2.00000
     18       3.8293      2.00000
     19       4.1118      2.00000
     20       4.3330      2.00000
     21       5.3672      2.00000
     22       5.3730      2.00000
     23       5.5085      2.00000
     24       5.5326      2.00000
     25      13.8747      0.00000
     26      14.5447      0.00000
     27      16.4594      0.00000
     28      16.9154      0.00000
     29      17.9046      0.00000
     30      18.0001      0.00000
     31      18.2970      0.00000
     32      19.0708      0.00000

 k-point   401 :      -0.4688    0.4063    0.4063
  band No.  band energies     occupation 
      1     -12.3617      2.00000
      2     -12.0201      2.00000
      3     -10.8059      2.00000
      4     -10.7046      2.00000
      5     -10.4997      2.00000
      6     -10.4499      2.00000
      7       0.2554      2.00000
      8       0.2773      2.00000
      9       1.0541      2.00000
     10       1.2796      2.00000
     11       1.5563      2.00000
     12       1.8508      2.00000
     13       2.0217      2.00000
     14       2.4267      2.00000
     15       3.2582      2.00000
     16       3.5096      2.00000
     17       3.6283      2.00000
     18       4.0802      2.00000
     19       4.1220      2.00000
     20       4.3995      2.00000
     21       5.2693      2.00000
     22       5.2989      2.00000
     23       5.4084      2.00000
     24       5.4742      2.00000
     25      14.1603      0.00000
     26      14.6511      0.00000
     27      16.6015      0.00000
     28      16.6224      0.00000
     29      17.6412      0.00000
     30      17.7591      0.00000
     31      17.9375      0.00000
     32      18.5684      0.00000

 k-point   402 :      -0.4063    0.4063    0.4063
  band No.  band energies     occupation 
      1     -12.2250      2.00000
      2     -12.0329      2.00000
      3     -10.9389      2.00000
      4     -10.7908      2.00000
      5     -10.4781      2.00000
      6     -10.4213      2.00000
      7       0.1144      2.00000
      8       0.3428      2.00000
      9       1.0398      2.00000
     10       1.1062      2.00000
     11       1.6950      2.00000
     12       2.0886      2.00000
     13       2.3002      2.00000
     14       2.4198      2.00000
     15       3.1458      2.00000
     16       3.4049      2.00000
     17       3.5838      2.00000
     18       4.1351      2.00000
     19       4.3310      2.00000
     20       4.5454      2.00000
     21       5.1243      2.00000
     22       5.1403      2.00000
     23       5.3384      2.00000
     24       5.3908      2.00000
     25      14.5229      0.00000
     26      14.8302      0.00000
     27      16.3183      0.00000
     28      16.7391      0.00000
     29      17.2784      0.00000
     30      17.3087      0.00000
     31      17.8039      0.00000
     32      18.7235      0.00000

 k-point   403 :       0.4688    0.4688    0.4063
  band No.  band energies     occupation 
      1     -12.4057      2.00000
      2     -12.0558      2.00000
      3     -10.6801      2.00000
      4     -10.6364      2.00000
      5     -10.5469      2.00000
      6     -10.4901      2.00000
      7       0.2280      2.00000
      8       0.4292      2.00000
      9       1.1040      2.00000
     10       1.4277      2.00000
     11       1.5145      2.00000
     12       1.6798      2.00000
     13       1.7433      2.00000
     14       2.3194      2.00000
     15       3.3972      2.00000
     16       3.6265      2.00000
     17       3.7164      2.00000
     18       3.9107      2.00000
     19       3.9739      2.00000
     20       4.2860      2.00000
     21       5.3645      2.00000
     22       5.4145      2.00000
     23       5.4816      2.00000
     24       5.5082      2.00000
     25      13.9911      0.00000
     26      14.4722      0.00000
     27      16.5248      0.00000
     28      16.8592      0.00000
     29      17.8601      0.00000
     30      17.9384      0.00000
     31      18.0849      0.00000
     32      19.7200      0.00000

 k-point   404 :      -0.4688    0.4688    0.4063
  band No.  band energies     occupation 
      1     -12.3102      2.00000
      2     -12.1022      2.00000
      3     -10.7460      2.00000
      4     -10.7130      2.00000
      5     -10.5001      2.00000
      6     -10.4679      2.00000
      7       0.2464      2.00000
      8       0.3340      2.00000
      9       1.1268      2.00000
     10       1.3714      2.00000
     11       1.5981      2.00000
     12       1.7951      2.00000
     13       1.8720      2.00000
     14       2.2913      2.00000
     15       3.3538      2.00000
     16       3.5328      2.00000
     17       3.7367      2.00000
     18       3.8657      2.00000
     19       4.1385      2.00000
     20       4.3289      2.00000
     21       5.3033      2.00000
     22       5.3660      2.00000
     23       5.4101      2.00000
     24       5.4633      2.00000
     25      14.2166      0.00000
     26      14.5100      0.00000
     27      16.6301      0.00000
     28      16.7155      0.00000
     29      17.6919      0.00000
     30      17.7928      0.00000
     31      18.0010      0.00000
     32      18.6824      0.00000

 k-point   405 :      -0.4063    0.4688    0.4063
  band No.  band energies     occupation 
      1     -12.1873      2.00000
      2     -12.1224      2.00000
      3     -10.8573      2.00000
      4     -10.7990      2.00000
      5     -10.4671      2.00000
      6     -10.4428      2.00000
      7       0.1996      2.00000
      8       0.2926      2.00000
      9       1.1279      2.00000
     10       1.1509      2.00000
     11       1.7211      2.00000
     12       1.9268      2.00000
     13       2.2511      2.00000
     14       2.2961      2.00000
     15       3.2606      2.00000
     16       3.3622      2.00000
     17       3.7060      2.00000
     18       3.9364      2.00000
     19       4.3633      2.00000
     20       4.4492      2.00000
     21       5.1828      2.00000
     22       5.1991      2.00000
     23       5.3727      2.00000
     24       5.3979      2.00000
     25      14.5328      0.00000
     26      14.6344      0.00000
     27      16.5185      0.00000
     28      16.6546      0.00000
     29      17.4562      0.00000
     30      17.6989      0.00000
     31      17.7860      0.00000
     32      19.3297      0.00000

 k-point   406 :      -0.4688   -0.4688    0.4062
  band No.  band energies     occupation 
      1     -12.2296      2.00000
      2     -12.1584      2.00000
      3     -10.7763      2.00000
      4     -10.7363      2.00000
      5     -10.4945      2.00000
      6     -10.4564      2.00000
      7       0.2159      2.00000
      8       0.3487      2.00000
      9       1.1022      2.00000
     10       1.3838      2.00000
     11       1.6130      2.00000
     12       1.8331      2.00000
     13       1.9745      2.00000
     14       2.2535      2.00000
     15       3.3281      2.00000
     16       3.5717      2.00000
     17       3.6241      2.00000
     18       3.9207      2.00000
     19       4.1734      2.00000
     20       4.3625      2.00000
     21       5.2742      2.00000
     22       5.3253      2.00000
     23       5.4157      2.00000
     24       5.4198      2.00000
     25      14.3775      0.00000
     26      14.4751      0.00000
     27      16.5702      0.00000
     28      16.7419      0.00000
     29      17.6137      0.00000
     30      17.7373      0.00000
     31      17.9918      0.00000
     32      19.7832      0.00000

 k-point   407 :       0.4688    0.4688    0.4688
  band No.  band energies     occupation 
      1     -12.3526      2.00000
      2     -12.1412      2.00000
      3     -10.5945      2.00000
      4     -10.5945      2.00000
      5     -10.5643      2.00000
      6     -10.5643      2.00000
      7       0.2814      2.00000
      8       0.4062      2.00000
      9       1.3817      2.00000
     10       1.3817      2.00000
     11       1.5533      2.00000
     12       1.6382      2.00000
     13       1.6382      2.00000
     14       2.0599      2.00000
     15       3.5582      2.00000
     16       3.7248      2.00000
     17       3.7667      2.00000
     18       3.7667      2.00000
     19       4.0287      2.00000
     20       4.0287      2.00000
     21       5.4380      2.00000
     22       5.4380      2.00000
     23       5.5005      2.00000
     24       5.5005      2.00000
     25      14.0415      0.00000
     26      14.3294      0.00000
     27      16.6291      0.00000
     28      16.8105      0.00000
     29      17.9331      0.00000
     30      18.0681      0.00000
     31      18.2659      0.00000
     32      18.3064      0.00000

 k-point   408 :      -0.4688    0.4688    0.4688
  band No.  band energies     occupation 
      1     -12.2694      2.00000
      2     -12.1995      2.00000
      3     -10.6704      2.00000
      4     -10.6496      2.00000
      5     -10.5222      2.00000
      6     -10.5129      2.00000
      7       0.3115      2.00000
      8       0.3321      2.00000
      9       1.3711      2.00000
     10       1.4229      2.00000
     11       1.4658      2.00000
     12       1.6873      2.00000
     13       1.8704      2.00000
     14       1.9796      2.00000
     15       3.5637      2.00000
     16       3.5938      2.00000
     17       3.7090      2.00000
     18       3.8725      2.00000
     19       4.0430      2.00000
     20       4.1142      2.00000
     21       5.4181      2.00000
     22       5.4243      2.00000
     23       5.4454      2.00000
     24       5.4693      2.00000
     25      14.2055      0.00000
     26      14.3024      0.00000
     27      16.6674      0.00000
     28      16.7451      0.00000
     29      17.8881      0.00000
     30      17.9924      0.00000
     31      18.1468      0.00000
     32      18.3444      0.00000


--------------------------------------------------------------------------------------------------------


 soft charge-density along one line, spin component           1
         0         1         2         3         4         5         6         7         8         9
 total charge-density along one line
 
 pseudopotential strength for first ion, spin component:           1
  8.401  14.317  -0.000   0.001  -0.000  -0.000   0.004  -0.000
 14.317  24.400  -0.000   0.002  -0.000  -0.000   0.008  -0.000
 -0.000  -0.000   1.981   0.000  -0.000   5.707   0.000  -0.000
  0.001   0.002   0.000   1.981  -0.000   0.000   5.707  -0.000
 -0.000  -0.000  -0.000  -0.000   1.981  -0.000  -0.000   5.707
 -0.000  -0.000   5.707   0.000  -0.000  16.360   0.000  -0.000
  0.004   0.008   0.000   5.707  -0.000   0.000  16.361  -0.000
 -0.000  -0.000  -0.000  -0.000   5.707  -0.000  -0.000  16.360
 total augmentation occupancy for first ion, spin component:           1
  5.258  -1.900  -0.000  -0.081  -0.000   0.000   0.008   0.000
 -1.900   0.720  -0.000   0.011   0.000   0.000  -0.001  -0.000
 -0.000   0.000   1.577  -0.000  -0.000  -0.156   0.000   0.000
 -0.081   0.011  -0.000   1.459   0.000   0.000  -0.141   0.000
  0.000   0.000  -0.000  -0.000   1.577  -0.000  -0.000  -0.156
  0.000   0.000  -0.156   0.000  -0.000   0.016  -0.000   0.000
  0.008  -0.001   0.000  -0.141  -0.000   0.000   0.015   0.000
  0.000   0.000   0.000   0.000  -0.156   0.000   0.000   0.016


------------------------ aborting loop because EDIFF is reached ----------------------------------------


    CHARGE:  cpu time    0.4159: real time    0.4155
    FORLOC:  cpu time    0.0020: real time    0.0018
    FORNL :  cpu time    1.0038: real time    1.0043
    STRESS:  cpu time    2.3136: real time    2.3153
    FORCOR:  cpu time    0.0150: real time    0.0151
    FORHAR:  cpu time    0.0040: real time    0.0044
    MIXING:  cpu time    0.0010: real time    0.0007
    OFIELD:  cpu time    0.0000: real time    0.0001

  FORCE on cell =-STRESS in cart. coord.  units (eV):
  Direction    XX          YY          ZZ          XY          YZ          ZX
  --------------------------------------------------------------------------------------
  Alpha Z    73.84110    73.84110    73.84110
  Ewald    -782.56236  -782.56236  -810.06071    -0.00000    -0.00000    -0.00000
  Hartree   246.32887   246.32887   256.99624     0.00000     0.00000    -0.00000
  E(xc)    -221.47413  -221.47413  -221.38034    -0.00000     0.00000     0.00000
  Local    -140.20101  -140.20101  -127.76740     0.00000     0.00000     0.00000
  n-local   -87.49386   -87.13119   -90.04294     0.28997     0.34714     0.02169
  augment    38.30920    38.30920    38.71010    -0.00000    -0.00000     0.00000
  Kinetic   873.01039   873.13396   879.70989     0.08312    -1.83081    -0.03854
  Fock        0.00000     0.00000     0.00000     0.00000     0.00000     0.00000
  -------------------------------------------------------------------------------------
  Total       0.00132     0.00132     0.00594     0.00000     0.00000     0.00000
  in kB       0.02422     0.02422     0.10887     0.00000     0.00000     0.00000
  external pressure =        0.05 kB  Pullay stress =        0.00 kB


 VOLUME and BASIS-vectors are now :
 -----------------------------------------------------------------------------
  energy-cutoff  :      600.00
  volume of cell :       87.42
      direct lattice vectors                 reciprocal lattice vectors
     2.402850517  1.387286393  4.370628333     0.208086186  0.120138616  0.076266685
    -2.402850517  1.387286393  4.370628333    -0.208086186  0.120138616  0.076266685
     0.000000000 -2.774572785  4.370628333     0.000000000 -0.240277231  0.076266685

  length of vectors
     5.176934051  5.176934051  5.176934051     0.252090767  0.252090767  0.252090767


 FORCES acting on ions
    electron-ion (+dipol)            ewald-force                    non-local-force                 convergence-correction
 -----------------------------------------------------------------------------------------------
   -.403E-07 -.521E-07 0.146E+02   -.711E-14 0.568E-13 -.159E+02   0.000E+00 0.520E-17 0.135E+01   -.312E-15 -.883E-15 0.189E-03
   -.403E-07 0.521E-07 -.146E+02   -.497E-13 -.373E-13 0.159E+02   0.173E-17 0.694E-17 -.135E+01   -.192E-15 0.289E-14 -.189E-03
   0.403E-07 -.521E-07 0.146E+02   0.231E-13 0.604E-13 -.159E+02   0.121E-16 0.000E+00 0.135E+01   -.660E-15 -.257E-14 0.189E-03
   0.403E-07 0.521E-07 -.146E+02   0.639E-13 -.249E-13 0.159E+02   0.139E-16 -.347E-17 -.135E+01   0.488E-15 0.529E-17 -.189E-03
   0.153E+02 0.266E+02 0.245E-07   -.157E+02 -.272E+02 0.162E-13   0.381E+00 0.661E+00 -.694E-17   0.839E-03 0.145E-02 -.706E-14
   0.307E+02 -.344E-12 0.841E-12   -.315E+02 -.888E-14 0.133E-14   0.763E+00 0.694E-17 0.000E+00   0.168E-02 0.337E-13 -.303E-13
   -.307E+02 0.172E-12 0.332E-11   0.315E+02 -.355E-14 0.744E-14   -.763E+00 -.139E-16 0.347E-17   -.168E-02 -.682E-13 0.110E-13
   0.153E+02 -.266E+02 -.245E-07   -.157E+02 0.272E+02 -.478E-13   0.381E+00 -.661E+00 0.139E-16   0.839E-03 -.145E-02 0.183E-13
   -.153E+02 0.266E+02 0.245E-07   0.157E+02 -.272E+02 0.155E-13   -.381E+00 0.661E+00 0.000E+00   -.839E-03 0.145E-02 -.304E-13
   -.153E+02 -.266E+02 -.245E-07   0.157E+02 0.272E+02 -.231E-13   -.381E+00 -.661E+00 0.694E-17   -.839E-03 -.145E-02 -.119E-13
 -----------------------------------------------------------------------------------------------
   -.130E-11 0.280E-13 0.186E-11   -.142E-13 -.107E-13 -.543E-14   -.111E-15 0.111E-15 0.173E-16   0.103E-14 -.546E-14 -.523E-13
 
 
 POSITION                                       TOTAL-FORCE (eV/Angst)
 -----------------------------------------------------------------------------------
      0.00000      0.00000      1.93827         0.000000     -0.000000     -0.000396
      0.00000      0.00000      4.61768         0.000000     -0.000000      0.000396
      0.00000      0.00000      8.49421         0.000000     -0.000000     -0.000396
      0.00000      0.00000     11.17362         0.000000     -0.000000      0.000396
      1.66721      0.11311      7.64860        -0.000241     -0.000418      0.000000
      0.93156     -1.38729      5.46329        -0.000483     -0.000000     -0.000000
     -0.93156      1.38729      7.64860         0.000483     -0.000000     -0.000000
     -0.73564     -1.50040      7.64860        -0.000241      0.000418      0.000000
      0.73564      1.50040      5.46329         0.000241     -0.000418      0.000000
     -1.66721     -0.11311      5.46329         0.000241      0.000418      0.000000
 -----------------------------------------------------------------------------------
    total drift:                               -0.000000      0.000000      0.000000


--------------------------------------------------------------------------------------------------------



  FREE ENERGIE OF THE ION-ELECTRON SYSTEM (eV)
  ---------------------------------------------------
  free  energy   TOTEN  =       -74.83098134 eV

  energy  without entropy=      -74.83098134  energy(sigma->0) =      -74.83098134
  enthalpy is  TOTEN    =       -74.83092678 eV   P V=        0.00005456



--------------------------------------------------------------------------------------------------------


    POTLOK:  cpu time    0.0160: real time    0.0159


--------------------------------------------------------------------------------------------------------


 Quasi-Newton relaxation of ions (Broydens 2nd method)
  g(Force)  = 0.977E-07   g(Stress)= 0.183E-06

 Reset! Starting new Quasi-Newton update for ions 


--------------------------------------------------------------------------------------------------------


  
 reached required accuracy - stopping structural energy minimisation
     LOOP+:  cpu time  115.3585: real time  115.5059
    4ORBIT:  cpu time    0.0000: real time    0.0000

 total amount of memory used by VASP MPI-rank0    77453. kBytes
=======================================================================

   base      :      30000. kBytes
   nonl-proj :      22001. kBytes
   fftplans  :       1045. kBytes
   grid      :       1632. kBytes
   one-center:          6. kBytes
   wavefun   :      22769. kBytes
 
  
  
 General timing and accounting informations for this job:
 ========================================================
  
                  Total CPU time used (sec):      119.165
                            User time (sec):      118.636
                          System time (sec):        0.529
                         Elapsed time (sec):      119.359
  
                   Maximum memory used (kb):      111596.
                   Average memory used (kb):           0.
  
                          Minor page faults:        14327
                          Major page faults:            0
                 Voluntary context switches:          260
