   2   2   0   0
  0.4341124E+02  0.2506265E-09  0.2506265E-09  0.1552239E-08  0.1000000E-15
  1.000000000000000E-004
  CAR 
 unknown system                          
     78.54655763    -26.16134274  301     -2.60119049      1.00000000
    -26.161  0.0000E+00  0.0000E+00
    -25.812  0.0000E+00  0.0000E+00
    -25.463  0.0000E+00  0.0000E+00
    -25.114  0.0000E+00  0.0000E+00
    -24.765  0.0000E+00  0.0000E+00
    -24.416  0.0000E+00  0.0000E+00
    -24.067  0.0000E+00  0.0000E+00
    -23.718  0.0000E+00  0.0000E+00
    -23.369  0.0000E+00  0.0000E+00
    -23.020  0.0000E+00  0.0000E+00
    -22.671  0.0000E+00  0.0000E+00
    -22.322  0.0000E+00  0.0000E+00
    -21.973  0.2982E-18  0.1041E-18
    -21.624  0.8565E-06  0.2990E-06
    -21.275  0.2779E-02  0.9701E-03
    -20.926  0.6640E-02  0.3288E-02
    -20.577  0.5918E-02  0.5353E-02
    -20.228  0.7027E-02  0.7806E-02
    -19.879  0.7224E-02  0.1033E-01
    -19.530  0.5260E-02  0.1216E-01
    -19.181  0.7967E-02  0.1494E-01
    -18.832  0.5592E-02  0.1690E-01
    -18.483  0.8072E-02  0.1971E-01
    -18.134  0.7314E-02  0.2227E-01
    -17.785  0.3810E-02  0.2360E-01
    -17.436  0.1169E-01  0.2768E-01
    -17.087  0.5676E-02  0.2966E-01
    -16.738  0.9181E-02  0.3286E-01
    -16.389  0.8518E-02  0.3583E-01
    -16.040  0.3795E-02  0.3716E-01
    -15.691  0.4882E-02  0.3886E-01
    -15.342  0.2712E-02  0.3981E-01
    -14.993  0.5652E-02  0.4178E-01
    -14.643  0.8294E-02  0.4468E-01
    -14.294  0.7628E-02  0.4734E-01
    -13.945  0.1022E-01  0.5091E-01
    -13.596  0.4697E-02  0.5255E-01
    -13.247  0.9632E-02  0.5591E-01
    -12.898  0.1253E-02  0.5634E-01
    -12.549  0.1058E-01  0.6004E-01
    -12.200  0.3126E-02  0.6113E-01
    -11.851  0.1143E-01  0.6512E-01
    -11.502  0.5469E-02  0.6703E-01
    -11.153  0.7789E-02  0.6974E-01
    -10.804  0.1045E-01  0.7339E-01
    -10.455  0.7456E-02  0.7600E-01
    -10.106  0.8275E-02  0.7888E-01
     -9.757  0.1001E-01  0.8238E-01
     -9.408  0.1656E-01  0.8815E-01
     -9.059  0.1627E-01  0.9383E-01
     -8.710  0.1840E-01  0.1003E+00
     -8.361  0.1924E-01  0.1070E+00
     -8.012  0.1977E-01  0.1139E+00
     -7.663  0.1300E-01  0.1184E+00
     -7.314  0.1466E-01  0.1235E+00
     -6.965  0.1396E-01  0.1284E+00
     -6.616  0.1048E-01  0.1321E+00
     -6.267  0.1482E-01  0.1372E+00
     -5.918  0.1184E-01  0.1414E+00
     -5.569  0.7387E-02  0.1439E+00
     -5.220  0.1256E-01  0.1483E+00
     -4.871  0.7084E-02  0.1508E+00
     -4.522  0.8379E-02  0.1537E+00
     -4.173  0.8639E-02  0.1567E+00
     -3.824  0.2222E-02  0.1575E+00
     -3.475  0.4801E-02  0.1592E+00
     -3.126  0.1439E-02  0.1597E+00
     -2.777  0.5610E-04  0.1597E+00
     -2.428  0.1676E-02  0.1603E+00
     -2.079  0.5889E-04  0.1603E+00
     -1.729  0.1696E-02  0.1609E+00
     -1.380  0.5407E-02  0.1628E+00
     -1.031  0.4287E-02  0.1643E+00
     -0.682  0.1493E-01  0.1695E+00
     -0.333  0.5837E-02  0.1715E+00
      0.016  0.5797E-02  0.1736E+00
      0.365  0.6489E-02  0.1758E+00
      0.714  0.6587E-02  0.1781E+00
      1.063  0.5439E-02  0.1800E+00
      1.412  0.9378E-02  0.1833E+00
      1.761  0.1076E-01  0.1871E+00
      2.110  0.1313E-01  0.1916E+00
      2.459  0.1408E-01  0.1965E+00
      2.808  0.1914E-01  0.2032E+00
      3.157  0.2629E-01  0.2124E+00
      3.506  0.1671E-01  0.2182E+00
      3.855  0.1959E-01  0.2251E+00
      4.204  0.2668E-01  0.2344E+00
      4.553  0.2459E-01  0.2430E+00
      4.902  0.3746E-01  0.2560E+00
      5.251  0.4239E-01  0.2708E+00
      5.600  0.4725E-01  0.2873E+00
      5.949  0.3550E-01  0.2997E+00
      6.298  0.4021E-01  0.3138E+00
      6.647  0.3040E-01  0.3244E+00
      6.996  0.3791E-01  0.3376E+00
      7.345  0.3555E-01  0.3500E+00
      7.694  0.3492E-01  0.3622E+00
      8.043  0.4925E-01  0.3794E+00
      8.392  0.2957E-01  0.3897E+00
      8.741  0.4733E-01  0.4062E+00
      9.090  0.4771E-01  0.4229E+00
      9.439  0.4691E-01  0.4392E+00
      9.788  0.4084E-01  0.4535E+00
     10.137  0.4461E-01  0.4691E+00
     10.486  0.3979E-01  0.4830E+00
     10.835  0.5284E-01  0.5014E+00
     11.184  0.4791E-01  0.5181E+00
     11.534  0.4694E-01  0.5345E+00
     11.883  0.3387E-01  0.5463E+00
     12.232  0.2719E-01  0.5558E+00
     12.581  0.3652E-01  0.5686E+00
     12.930  0.5202E-01  0.5867E+00
     13.279  0.4647E-01  0.6029E+00
     13.628  0.5354E-01  0.6216E+00
     13.977  0.5840E-01  0.6420E+00
     14.326  0.5181E-01  0.6601E+00
     14.675  0.3973E-01  0.6740E+00
     15.024  0.3762E-01  0.6871E+00
     15.373  0.6214E-01  0.7088E+00
     15.722  0.3822E-01  0.7221E+00
     16.071  0.5368E-01  0.7409E+00
     16.420  0.4917E-01  0.7580E+00
     16.769  0.4838E-01  0.7749E+00
     17.118  0.5222E-01  0.7931E+00
     17.467  0.5338E-01  0.8118E+00
     17.816  0.5979E-01  0.8326E+00
     18.165  0.4376E-01  0.8479E+00
     18.514  0.6148E-01  0.8694E+00
     18.863  0.6133E-01  0.8908E+00
     19.212  0.5043E-01  0.9084E+00
     19.561  0.5534E-01  0.9277E+00
     19.910  0.6306E-01  0.9497E+00
     20.259  0.6551E-01  0.9726E+00
     20.608  0.5580E-01  0.9920E+00
     20.957  0.4879E-01  0.1009E+01
     21.306  0.5686E-01  0.1029E+01
     21.655  0.6571E-01  0.1052E+01
     22.004  0.6172E-01  0.1073E+01
     22.353  0.6470E-01  0.1096E+01
     22.702  0.6109E-01  0.1117E+01
     23.051  0.5753E-01  0.1137E+01
     23.400  0.7121E-01  0.1162E+01
     23.749  0.4718E-01  0.1179E+01
     24.098  0.5158E-01  0.1197E+01
     24.447  0.6627E-01  0.1220E+01
     24.797  0.5738E-01  0.1240E+01
     25.146  0.5549E-01  0.1259E+01
     25.495  0.5362E-01  0.1278E+01
     25.844  0.6400E-01  0.1300E+01
     26.193  0.5649E-01  0.1320E+01
     26.542  0.5689E-01  0.1340E+01
     26.891  0.5282E-01  0.1358E+01
     27.240  0.6749E-01  0.1382E+01
     27.589  0.5642E-01  0.1402E+01
     27.938  0.6798E-01  0.1425E+01
     28.287  0.6512E-01  0.1448E+01
     28.636  0.5819E-01  0.1468E+01
     28.985  0.5800E-01  0.1489E+01
     29.334  0.6050E-01  0.1510E+01
     29.683  0.6433E-01  0.1532E+01
     30.032  0.7169E-01  0.1557E+01
     30.381  0.6265E-01  0.1579E+01
     30.730  0.7472E-01  0.1605E+01
     31.079  0.8115E-01  0.1633E+01
     31.428  0.5785E-01  0.1654E+01
     31.777  0.5607E-01  0.1673E+01
     32.126  0.6501E-01  0.1696E+01
     32.475  0.6155E-01  0.1717E+01
     32.824  0.7185E-01  0.1742E+01
     33.173  0.4606E-01  0.1758E+01
     33.522  0.9153E-01  0.1790E+01
     33.871  0.7851E-01  0.1818E+01
     34.220  0.7344E-01  0.1843E+01
     34.569  0.7748E-01  0.1871E+01
     34.918  0.6159E-01  0.1892E+01
     35.267  0.5998E-01  0.1913E+01
     35.616  0.8346E-01  0.1942E+01
     35.965  0.6811E-01  0.1966E+01
     36.314  0.7900E-01  0.1993E+01
     36.663  0.5678E-01  0.2013E+01
     37.012  0.6457E-01  0.2036E+01
     37.361  0.9162E-01  0.2068E+01
     37.710  0.8410E-01  0.2097E+01
     38.060  0.7657E-01  0.2124E+01
     38.409  0.7878E-01  0.2151E+01
     38.758  0.7148E-01  0.2176E+01
     39.107  0.8023E-01  0.2204E+01
     39.456  0.9061E-01  0.2236E+01
     39.805  0.7686E-01  0.2263E+01
     40.154  0.8566E-01  0.2293E+01
     40.503  0.7458E-01  0.2319E+01
     40.852  0.7756E-01  0.2346E+01
     41.201  0.7217E-01  0.2371E+01
     41.550  0.8856E-01  0.2402E+01
     41.899  0.9174E-01  0.2434E+01
     42.248  0.7158E-01  0.2459E+01
     42.597  0.8249E-01  0.2488E+01
     42.946  0.5735E-01  0.2508E+01
     43.295  0.7517E-01  0.2534E+01
     43.644  0.8969E-01  0.2565E+01
     43.993  0.9332E-01  0.2598E+01
     44.342  0.7922E-01  0.2625E+01
     44.691  0.7787E-01  0.2653E+01
     45.040  0.8007E-01  0.2681E+01
     45.389  0.6734E-01  0.2704E+01
     45.738  0.7940E-01  0.2732E+01
     46.087  0.8633E-01  0.2762E+01
     46.436  0.9165E-01  0.2794E+01
     46.785  0.7566E-01  0.2820E+01
     47.134  0.7830E-01  0.2848E+01
     47.483  0.6784E-01  0.2871E+01
     47.832  0.8209E-01  0.2900E+01
     48.181  0.7616E-01  0.2927E+01
     48.530  0.9404E-01  0.2959E+01
     48.879  0.7295E-01  0.2985E+01
     49.228  0.9762E-01  0.3019E+01
     49.577  0.8986E-01  0.3050E+01
     49.926  0.8465E-01  0.3080E+01
     50.275  0.7556E-01  0.3106E+01
     50.624  0.8725E-01  0.3137E+01
     50.973  0.7635E-01  0.3163E+01
     51.323  0.1024E+00  0.3199E+01
     51.672  0.9009E-01  0.3230E+01
     52.021  0.8900E-01  0.3262E+01
     52.370  0.9298E-01  0.3294E+01
     52.719  0.8392E-01  0.3323E+01
     53.068  0.9293E-01  0.3356E+01
     53.417  0.8652E-01  0.3386E+01
     53.766  0.9098E-01  0.3418E+01
     54.115  0.9380E-01  0.3450E+01
     54.464  0.9015E-01  0.3482E+01
     54.813  0.9449E-01  0.3515E+01
     55.162  0.7168E-01  0.3540E+01
     55.511  0.8339E-01  0.3569E+01
     55.860  0.1036E+00  0.3605E+01
     56.209  0.9721E-01  0.3639E+01
     56.558  0.9067E-01  0.3671E+01
     56.907  0.9065E-01  0.3702E+01
     57.256  0.8214E-01  0.3731E+01
     57.605  0.9048E-01  0.3763E+01
     57.954  0.9296E-01  0.3795E+01
     58.303  0.9212E-01  0.3827E+01
     58.652  0.9300E-01  0.3860E+01
     59.001  0.8582E-01  0.3890E+01
     59.350  0.9639E-01  0.3923E+01
     59.699  0.9354E-01  0.3956E+01
     60.048  0.9019E-01  0.3987E+01
     60.397  0.9308E-01  0.4020E+01
     60.746  0.1006E+00  0.4055E+01
     61.095  0.8826E-01  0.4086E+01
     61.444  0.1001E+00  0.4121E+01
     61.793  0.9863E-01  0.4155E+01
     62.142  0.8553E-01  0.4185E+01
     62.491  0.9743E-01  0.4219E+01
     62.840  0.9515E-01  0.4252E+01
     63.189  0.1066E+00  0.4289E+01
     63.538  0.1068E+00  0.4327E+01
     63.887  0.7658E-01  0.4353E+01
     64.236  0.9830E-01  0.4388E+01
     64.586  0.8899E-01  0.4419E+01
     64.935  0.1071E+00  0.4456E+01
     65.284  0.9376E-01  0.4489E+01
     65.633  0.1035E+00  0.4525E+01
     65.982  0.1163E+00  0.4566E+01
     66.331  0.9379E-01  0.4598E+01
     66.680  0.9694E-01  0.4632E+01
     67.029  0.9179E-01  0.4664E+01
     67.378  0.8350E-01  0.4693E+01
     67.727  0.1108E+00  0.4732E+01
     68.076  0.9425E-01  0.4765E+01
     68.425  0.8514E-01  0.4795E+01
     68.774  0.1100E+00  0.4833E+01
     69.123  0.1031E+00  0.4869E+01
     69.472  0.9679E-01  0.4903E+01
     69.821  0.9483E-01  0.4936E+01
     70.170  0.8113E-01  0.4964E+01
     70.519  0.8940E-01  0.4995E+01
     70.868  0.6912E-01  0.5019E+01
     71.217  0.6430E-01  0.5042E+01
     71.566  0.5209E-01  0.5060E+01
     71.915  0.5129E-01  0.5078E+01
     72.264  0.4529E-01  0.5094E+01
     72.613  0.3371E-01  0.5106E+01
     72.962  0.2561E-01  0.5115E+01
     73.311  0.9392E-02  0.5118E+01
     73.660  0.3680E-02  0.5119E+01
     74.009  0.2604E-02  0.5120E+01
     74.358  0.1511E-05  0.5120E+01
     74.707  0.0000E+00  0.5120E+01
     75.056  0.0000E+00  0.5120E+01
     75.405  0.0000E+00  0.5120E+01
     75.754  0.0000E+00  0.5120E+01
     76.103  0.0000E+00  0.5120E+01
     76.452  0.0000E+00  0.5120E+01
     76.801  0.0000E+00  0.5120E+01
     77.150  0.0000E+00  0.5120E+01
     77.499  0.0000E+00  0.5120E+01
     77.849  0.0000E+00  0.5120E+01
     78.198  0.0000E+00  0.5120E+01
     78.547  0.0000E+00  0.5120E+01
