    2    2   50    1
  0.4341124E+02  0.2506265E-09  0.2506265E-09  0.1552239E-08  0.1000000E-15
  1.000000000000000E-004
  CAR 
 unknown system                          
      8     72    128
 
  0.3125000E-01  0.3125000E-01  0.0000000E+00  0.7812500E-02
    1      -21.363442   1.000000
    2       -9.573933   1.000000
    3       -6.063576   1.000000
    4       -5.683921   1.000000
    5        0.995344   0.000000
    6        1.866767   0.000000
    7        2.396742   0.000000
    8        4.116192   0.000000
    9        4.742954   0.000000
   10        4.882287   0.000000
   11        5.484393   0.000000
   12        7.494514   0.000000
   13        7.738451   0.000000
   14        8.484302   0.000000
   15        8.804136   0.000000
   16       12.686737   0.000000
   17       14.131525   0.000000
   18       18.732277   0.000000
   19       18.993326   0.000000
   20       20.805691   0.000000
   21       23.231301   0.000000
   22       23.453763   0.000000
   23       25.855661   0.000000
   24       27.523588   0.000000
   25       28.003814   0.000000
   26       28.377960   0.000000
   27       28.736529   0.000000
   28       28.856132   0.000000
   29       29.716478   0.000000
   30       29.753296   0.000000
   31       29.811511   0.000000
   32       29.854318   0.000000
   33       30.505189   0.000000
   34       31.723695   0.000000
   35       31.952466   0.000000
   36       32.021399   0.000000
   37       32.216952   0.000000
   38       32.970049   0.000000
   39       33.244415   0.000000
   40       33.587953   0.000000
   41       34.116953   0.000000
   42       34.243876   0.000000
   43       34.881708   0.000000
   44       35.115840   0.000000
   45       35.159318   0.000000
   46       35.191083   0.000000
   47       35.215859   0.000000
   48       35.228189   0.000000
   49       35.248085   0.000000
   50       35.595354   0.000000
   51       35.788159   0.000000
   52       35.878130   0.000000
   53       36.045121   0.000000
   54       36.777662   0.000000
   55       36.947278   0.000000
   56       37.128354   0.000000
   57       37.259701   0.000000
   58       37.505151   0.000000
   59       37.578375   0.000000
   60       37.696140   0.000000
   61       37.705426   0.000000
   62       38.180023   0.000000
   63       38.210766   0.000000
   64       39.700126   0.000000
   65       39.887356   0.000000
   66       40.661235   0.000000
   67       40.905489   0.000000
   68       40.925334   0.000000
   69       41.213506   0.000000
   70       41.227405   0.000000
   71       41.607227   0.000000
   72       41.657668   0.000000
   73       41.760749   0.000000
   74       41.794021   0.000000
   75       42.393520   0.000000
   76       43.542305   0.000000
   77       44.859944   0.000000
   78       44.986563   0.000000
   79       45.475396   0.000000
   80       46.303040   0.000000
   81       46.458911   0.000000
   82       46.634929   0.000000
   83       46.939137   0.000000
   84       47.589383   0.000000
   85       47.708468   0.000000
   86       47.717829   0.000000
   87       47.915187   0.000000
   88       48.267030   0.000000
   89       48.907138   0.000000
   90       49.107410   0.000000
   91       49.199267   0.000000
   92       51.539404   0.000000
   93       52.926398   0.000000
   94       53.071960   0.000000
   95       53.148846   0.000000
   96       53.500811   0.000000
   97       53.664951   0.000000
   98       54.424962   0.000000
   99       54.560596   0.000000
  100       55.157391   0.000000
  101       55.655742   0.000000
  102       55.966409   0.000000
  103       56.475751   0.000000
  104       58.365921   0.000000
  105       59.401361   0.000000
  106       59.833774   0.000000
  107       60.757476   0.000000
  108       60.802973   0.000000
  109       61.217038   0.000000
  110       61.646102   0.000000
  111       62.102113   0.000000
  112       62.107913   0.000000
  113       62.215350   0.000000
  114       62.723101   0.000000
  115       64.108088   0.000000
  116       64.781969   0.000000
  117       64.970733   0.000000
  118       65.849670   0.000000
  119       67.816873   0.000000
  120       68.549896   0.000000
  121       68.551805   0.000000
  122       69.692878   0.000000
  123       70.391884   0.000000
  124       70.495820   0.000000
  125       70.879363   0.000000
  126       71.016849   0.000000
  127       71.194389   0.000000
  128       72.659265   0.000000
 
  0.9375000E-01  0.3125000E-01  0.0000000E+00  0.1562500E-01
    1      -21.155637   1.000000
    2       -9.331442   1.000000
    3       -6.852096   1.000000
    4       -6.132738   1.000000
    5        1.276156   0.000000
    6        2.149865   0.000000
    7        2.683611   0.000000
    8        4.397419   0.000000
    9        5.016119   0.000000
   10        5.214977   0.000000
   11        6.374390   0.000000
   12        6.816697   0.000000
   13        8.011099   0.000000
   14        8.720191   0.000000
   15        9.087436   0.000000
   16       12.930595   0.000000
   17       14.407411   0.000000
   18       18.742309   0.000000
   19       19.434550   0.000000
   20       21.092366   0.000000
   21       21.401819   0.000000
   22       22.861879   0.000000
   23       24.922272   0.000000
   24       25.885320   0.000000
   25       26.326226   0.000000
   26       26.406889   0.000000
   27       26.895945   0.000000
   28       27.726492   0.000000
   29       28.361875   0.000000
   30       28.467602   0.000000
   31       28.727945   0.000000
   32       28.939547   0.000000
   33       28.990499   0.000000
   34       30.307660   0.000000
   35       30.614810   0.000000
   36       30.923971   0.000000
   37       31.881788   0.000000
   38       32.296437   0.000000
   39       32.514799   0.000000
   40       32.764381   0.000000
   41       33.409599   0.000000
   42       33.454401   0.000000
   43       34.374350   0.000000
   44       34.452992   0.000000
   45       35.018708   0.000000
   46       35.565265   0.000000
   47       35.693398   0.000000
   48       35.927779   0.000000
   49       36.177444   0.000000
   50       36.768935   0.000000
   51       37.195120   0.000000
   52       37.325327   0.000000
   53       37.469678   0.000000
   54       37.491865   0.000000
   55       37.655021   0.000000
   56       37.947430   0.000000
   57       38.191777   0.000000
   58       38.900761   0.000000
   59       38.949075   0.000000
   60       39.190480   0.000000
   61       39.299131   0.000000
   62       39.451380   0.000000
   63       39.600962   0.000000
   64       39.731674   0.000000
   65       39.940197   0.000000
   66       40.176286   0.000000
   67       40.298004   0.000000
   68       40.944037   0.000000
   69       41.486822   0.000000
   70       41.992028   0.000000
   71       42.699775   0.000000
   72       42.846126   0.000000
   73       43.696068   0.000000
   74       43.920736   0.000000
   75       44.073784   0.000000
   76       44.241374   0.000000
   77       44.455972   0.000000
   78       44.798431   0.000000
   79       45.433359   0.000000
   80       45.972585   0.000000
   81       46.168736   0.000000
   82       46.670119   0.000000
   83       46.986082   0.000000
   84       47.167695   0.000000
   85       48.608293   0.000000
   86       48.776573   0.000000
   87       49.110275   0.000000
   88       49.116410   0.000000
   89       49.565270   0.000000
   90       50.665995   0.000000
   91       51.198072   0.000000
   92       51.356150   0.000000
   93       51.936469   0.000000
   94       52.221145   0.000000
   95       52.883562   0.000000
   96       53.864766   0.000000
   97       54.536013   0.000000
   98       54.739019   0.000000
   99       55.633223   0.000000
  100       55.721994   0.000000
  101       56.021841   0.000000
  102       56.859533   0.000000
  103       57.935401   0.000000
  104       58.561796   0.000000
  105       59.143988   0.000000
  106       59.553062   0.000000
  107       60.195601   0.000000
  108       61.251839   0.000000
  109       61.285138   0.000000
  110       61.842394   0.000000
  111       62.599416   0.000000
  112       63.198044   0.000000
  113       63.381900   0.000000
  114       63.434554   0.000000
  115       63.834355   0.000000
  116       64.545589   0.000000
  117       65.273663   0.000000
  118       65.839826   0.000000
  119       67.690743   0.000000
  120       68.125500   0.000000
  121       68.627328   0.000000
  122       69.083795   0.000000
  123       71.168310   0.000000
  124       71.565530   0.000000
  125       72.106432   0.000000
  126       72.190481   0.000000
  127       72.538482   0.000000
  128       72.665412   0.000000
 
  0.1562500E+00  0.3125000E-01  0.0000000E+00  0.1562500E-01
    1      -20.780069   1.000000
    2       -8.895539   1.000000
    3       -8.113689   1.000000
    4       -6.696776   1.000000
    5        1.786420   0.000000
    6        2.661628   0.000000
    7        3.204495   0.000000
    8        4.900427   0.000000
    9        5.293474   0.000000
   10        5.699629   0.000000
   11        5.726606   0.000000
   12        7.656426   0.000000
   13        8.503219   0.000000
   14        9.389781   0.000000
   15        9.611978   0.000000
   16       13.353484   0.000000
   17       14.903039   0.000000
   18       18.196311   0.000000
   19       19.828715   0.000000
   20       20.410233   0.000000
   21       21.563906   0.000000
   22       21.799293   0.000000
   23       22.159652   0.000000
   24       23.187732   0.000000
   25       23.309776   0.000000
   26       25.328078   0.000000
   27       25.477495   0.000000
   28       25.911813   0.000000
   29       26.533686   0.000000
   30       26.994553   0.000000
   31       27.193819   0.000000
   32       28.454107   0.000000
   33       29.372252   0.000000
   34       29.429673   0.000000
   35       29.483268   0.000000
   36       29.511764   0.000000
   37       29.957687   0.000000
   38       30.584295   0.000000
   39       31.860685   0.000000
   40       31.944288   0.000000
   41       32.607097   0.000000
   42       33.324630   0.000000
   43       33.433935   0.000000
   44       34.157584   0.000000
   45       34.304792   0.000000
   46       34.364404   0.000000
   47       34.615194   0.000000
   48       35.583073   0.000000
   49       36.326477   0.000000
   50       37.744918   0.000000
   51       37.772576   0.000000
   52       37.781419   0.000000
   53       38.075215   0.000000
   54       38.530665   0.000000
   55       38.547019   0.000000
   56       38.757173   0.000000
   57       39.402656   0.000000
   58       39.587209   0.000000
   59       39.762102   0.000000
   60       40.067042   0.000000
   61       40.175023   0.000000
   62       40.786396   0.000000
   63       41.111662   0.000000
   64       41.354766   0.000000
   65       41.744849   0.000000
   66       42.313999   0.000000
   67       42.342767   0.000000
   68       42.524592   0.000000
   69       43.024567   0.000000
   70       43.157266   0.000000
   71       43.603559   0.000000
   72       43.798498   0.000000
   73       44.502510   0.000000
   74       44.691788   0.000000
   75       45.199643   0.000000
   76       45.428686   0.000000
   77       45.787537   0.000000
   78       45.918528   0.000000
   79       46.205422   0.000000
   80       46.476625   0.000000
   81       47.345204   0.000000
   82       47.575988   0.000000
   83       48.291937   0.000000
   84       49.049346   0.000000
   85       49.399135   0.000000
   86       49.766407   0.000000
   87       50.022103   0.000000
   88       50.217936   0.000000
   89       50.412047   0.000000
   90       51.201900   0.000000
   91       51.509453   0.000000
   92       51.561907   0.000000
   93       51.999346   0.000000
   94       52.859057   0.000000
   95       53.508272   0.000000
   96       54.860703   0.000000
   97       55.265952   0.000000
   98       56.003598   0.000000
   99       57.043403   0.000000
  100       57.313243   0.000000
  101       57.852213   0.000000
  102       58.012233   0.000000
  103       58.373632   0.000000
  104       58.425197   0.000000
  105       58.892311   0.000000
  106       59.777748   0.000000
  107       60.447508   0.000000
  108       60.905783   0.000000
  109       61.676592   0.000000
  110       61.916384   0.000000
  111       62.234055   0.000000
  112       62.860630   0.000000
  113       64.405542   0.000000
  114       65.010962   0.000000
  115       65.268942   0.000000
  116       65.938749   0.000000
  117       66.258781   0.000000
  118       66.948496   0.000000
  119       67.458497   0.000000
  120       68.673530   0.000000
  121       68.799351   0.000000
  122       69.194464   0.000000
  123       69.293136   0.000000
  124       70.401818   0.000000
  125       71.589899   0.000000
  126       71.739525   0.000000
  127       72.229813   0.000000
  128       72.650266   0.000000
 
  0.2187500E+00  0.3125000E-01  0.0000000E+00  0.1562500E-01
    1      -20.239931   1.000000
    2       -9.606101   1.000000
    3       -8.275515   1.000000
    4       -7.265576   1.000000
    5        2.525037   0.000000
    6        3.384091   0.000000
    7        3.958620   0.000000
    8        4.341020   0.000000
    9        5.298523   0.000000
   10        5.661771   0.000000
   11        6.415684   0.000000
   12        9.207909   0.000000
   13        9.223264   0.000000
   14       10.274322   0.000000
   15       10.555657   0.000000
   16       13.887394   0.000000
   17       15.609381   0.000000
   18       16.971666   0.000000
   19       18.458583   0.000000
   20       19.702070   0.000000
   21       19.974013   0.000000
   22       20.835540   0.000000
   23       21.095405   0.000000
   24       21.182314   0.000000
   25       22.358959   0.000000
   26       22.951563   0.000000
   27       23.108657   0.000000
   28       24.890576   0.000000
   29       25.588200   0.000000
   30       26.190735   0.000000
   31       26.221450   0.000000
   32       26.711665   0.000000
   33       27.834060   0.000000
   34       28.156001   0.000000
   35       28.392670   0.000000
   36       29.315586   0.000000
   37       29.597329   0.000000
   38       30.209276   0.000000
   39       30.664917   0.000000
   40       30.918693   0.000000
   41       31.822108   0.000000
   42       31.947598   0.000000
   43       32.318495   0.000000
   44       32.564433   0.000000
   45       33.209196   0.000000
   46       33.275182   0.000000
   47       35.351469   0.000000
   48       35.705468   0.000000
   49       36.034075   0.000000
   50       36.871532   0.000000
   51       37.263465   0.000000
   52       37.581124   0.000000
   53       37.833981   0.000000
   54       38.465679   0.000000
   55       38.892164   0.000000
   56       39.044790   0.000000
   57       40.527585   0.000000
   58       40.649918   0.000000
   59       40.787060   0.000000
   60       41.795569   0.000000
   61       41.943976   0.000000
   62       42.000828   0.000000
   63       42.160471   0.000000
   64       42.744259   0.000000
   65       42.906554   0.000000
   66       43.249058   0.000000
   67       43.810003   0.000000
   68       44.162838   0.000000
   69       44.298937   0.000000
   70       44.670961   0.000000
   71       45.034983   0.000000
   72       45.401110   0.000000
   73       45.625486   0.000000
   74       46.476674   0.000000
   75       47.051238   0.000000
   76       47.317144   0.000000
   77       47.769745   0.000000
   78       48.035274   0.000000
   79       48.270258   0.000000
   80       48.282291   0.000000
   81       48.959115   0.000000
   82       49.060999   0.000000
   83       49.402463   0.000000
   84       49.628738   0.000000
   85       50.199123   0.000000
   86       50.536052   0.000000
   87       50.809942   0.000000
   88       51.601019   0.000000
   89       52.435433   0.000000
   90       53.037132   0.000000
   91       53.218884   0.000000
   92       53.933948   0.000000
   93       54.158081   0.000000
   94       54.391037   0.000000
   95       54.933481   0.000000
   96       55.159823   0.000000
   97       55.697724   0.000000
   98       55.943134   0.000000
   99       56.769898   0.000000
  100       58.531875   0.000000
  101       58.776789   0.000000
  102       58.902296   0.000000
  103       58.935250   0.000000
  104       60.321215   0.000000
  105       60.686041   0.000000
  106       60.781890   0.000000
  107       60.991082   0.000000
  108       61.579307   0.000000
  109       61.967628   0.000000
  110       62.226206   0.000000
  111       62.525514   0.000000
  112       64.395004   0.000000
  113       64.594846   0.000000
  114       65.566329   0.000000
  115       65.913087   0.000000
  116       66.088025   0.000000
  117       66.236605   0.000000
  118       67.437922   0.000000
  119       67.731607   0.000000
  120       68.105015   0.000000
  121       68.603725   0.000000
  122       68.834203   0.000000
  123       69.288235   0.000000
  124       69.650679   0.000000
  125       70.287131   0.000000
  126       70.343861   0.000000
  127       71.545269   0.000000
  128       71.662412   0.000000
 
  0.2812500E+00  0.3125000E-01  0.0000000E+00  0.1562500E-01
    1      -19.541193   1.000000
    2      -11.165650   1.000000
    3       -7.768937   1.000000
    4       -7.490096   1.000000
    5        2.764054   0.000000
    6        3.488507   0.000000
    7        4.407961   0.000000
    8        4.928595   0.000000
    9        5.153977   0.000000
   10        6.620590   0.000000
   11        7.376281   0.000000
   12       10.108940   0.000000
   13       10.868740   0.000000
   14       11.223917   0.000000
   15       11.775272   0.000000
   16       14.202214   0.000000
   17       15.862697   0.000000
   18       16.087605   0.000000
   19       16.545521   0.000000
   20       17.351380   0.000000
   21       17.674708   0.000000
   22       19.362280   0.000000
   23       19.626774   0.000000
   24       20.511694   0.000000
   25       21.757557   0.000000
   26       21.768423   0.000000
   27       23.404925   0.000000
   28       23.834325   0.000000
   29       23.923737   0.000000
   30       24.841987   0.000000
   31       25.221426   0.000000
   32       25.560097   0.000000
   33       26.994349   0.000000
   34       27.548183   0.000000
   35       27.926045   0.000000
   36       28.317682   0.000000
   37       29.106185   0.000000
   38       29.301799   0.000000
   39       29.622990   0.000000
   40       30.020977   0.000000
   41       30.645205   0.000000
   42       31.188232   0.000000
   43       31.432617   0.000000
   44       31.777096   0.000000
   45       32.358513   0.000000
   46       33.238045   0.000000
   47       34.662547   0.000000
   48       35.540337   0.000000
   49       35.779222   0.000000
   50       35.927288   0.000000
   51       36.310049   0.000000
   52       36.512920   0.000000
   53       37.204964   0.000000
   54       38.306447   0.000000
   55       39.035932   0.000000
   56       39.226535   0.000000
   57       41.040022   0.000000
   58       41.062022   0.000000
   59       41.489475   0.000000
   60       42.508429   0.000000
   61       43.106734   0.000000
   62       43.576934   0.000000
   63       43.695345   0.000000
   64       43.874307   0.000000
   65       44.307859   0.000000
   66       44.750650   0.000000
   67       44.876098   0.000000
   68       45.190598   0.000000
   69       45.987413   0.000000
   70       46.081405   0.000000
   71       46.890373   0.000000
   72       46.894325   0.000000
   73       47.253902   0.000000
   74       47.934164   0.000000
   75       48.049005   0.000000
   76       48.282528   0.000000
   77       49.222752   0.000000
   78       50.298058   0.000000
   79       50.380441   0.000000
   80       51.148747   0.000000
   81       51.207513   0.000000
   82       51.323756   0.000000
   83       51.600330   0.000000
   84       52.316784   0.000000
   85       52.354159   0.000000
   86       52.423973   0.000000
   87       52.951819   0.000000
   88       53.049636   0.000000
   89       53.152464   0.000000
   90       54.541060   0.000000
   91       54.902891   0.000000
   92       55.239164   0.000000
   93       55.465416   0.000000
   94       55.802541   0.000000
   95       55.971473   0.000000
   96       56.718870   0.000000
   97       56.851489   0.000000
   98       57.370653   0.000000
   99       58.902307   0.000000
  100       58.957360   0.000000
  101       59.331074   0.000000
  102       60.085342   0.000000
  103       60.511611   0.000000
  104       60.611658   0.000000
  105       61.118753   0.000000
  106       62.498197   0.000000
  107       62.527270   0.000000
  108       63.153026   0.000000
  109       63.219183   0.000000
  110       63.623567   0.000000
  111       63.896356   0.000000
  112       64.021086   0.000000
  113       64.370873   0.000000
  114       64.815346   0.000000
  115       64.892996   0.000000
  116       64.989930   0.000000
  117       65.272298   0.000000
  118       65.287278   0.000000
  119       65.743493   0.000000
  120       66.562741   0.000000
  121       67.641418   0.000000
  122       67.697232   0.000000
  123       69.193699   0.000000
  124       69.938981   0.000000
  125       70.391185   0.000000
  126       70.628135   0.000000
  127       71.271657   0.000000
  128       71.290975   0.000000
 
  0.3437500E+00  0.3125000E-01  0.0000000E+00  0.1562500E-01
    1      -18.696323   1.000000
    2      -12.692632   1.000000
    3       -8.161273   1.000000
    4       -6.580361   1.000000
    5        1.240976   0.000000
    6        4.639738   0.000000
    7        4.970400   0.000000
    8        5.592835   0.000000
    9        6.177017   0.000000
   10        7.801551   0.000000
   11        8.564401   0.000000
   12       11.151461   0.000000
   13       11.673921   0.000000
   14       12.393733   0.000000
   15       12.994792   0.000000
   16       13.306759   0.000000
   17       14.271896   0.000000
   18       15.084484   0.000000
   19       15.131426   0.000000
   20       16.337033   0.000000
   21       17.299765   0.000000
   22       17.765850   0.000000
   23       17.979778   0.000000
   24       19.560561   0.000000
   25       20.786484   0.000000
   26       21.036893   0.000000
   27       22.514668   0.000000
   28       23.354375   0.000000
   29       23.583564   0.000000
   30       24.625662   0.000000
   31       24.920348   0.000000
   32       25.218799   0.000000
   33       25.876717   0.000000
   34       26.816806   0.000000
   35       26.967725   0.000000
   36       27.132548   0.000000
   37       27.839850   0.000000
   38       28.435176   0.000000
   39       28.772100   0.000000
   40       29.949084   0.000000
   41       30.242288   0.000000
   42       30.676073   0.000000
   43       31.104023   0.000000
   44       31.472302   0.000000
   45       32.568153   0.000000
   46       32.752832   0.000000
   47       33.511087   0.000000
   48       33.564661   0.000000
   49       34.321151   0.000000
   50       35.591941   0.000000
   51       35.679153   0.000000
   52       36.654639   0.000000
   53       36.913564   0.000000
   54       39.046117   0.000000
   55       39.733246   0.000000
   56       40.412210   0.000000
   57       40.595323   0.000000
   58       41.073215   0.000000
   59       41.178281   0.000000
   60       41.623556   0.000000
   61       42.585354   0.000000
   62       43.354800   0.000000
   63       43.400918   0.000000
   64       45.792339   0.000000
   65       45.974809   0.000000
   66       47.060075   0.000000
   67       47.266672   0.000000
   68       47.561927   0.000000
   69       47.685671   0.000000
   70       48.078571   0.000000
   71       48.533608   0.000000
   72       49.249978   0.000000
   73       49.450987   0.000000
   74       49.731129   0.000000
   75       49.903661   0.000000
   76       50.422087   0.000000
   77       50.867756   0.000000
   78       50.884906   0.000000
   79       51.442174   0.000000
   80       51.609072   0.000000
   81       52.369251   0.000000
   82       52.411085   0.000000
   83       52.947765   0.000000
   84       53.047633   0.000000
   85       53.714720   0.000000
   86       54.035696   0.000000
   87       54.655335   0.000000
   88       54.962117   0.000000
   89       55.494758   0.000000
   90       56.274757   0.000000
   91       57.160253   0.000000
   92       57.336356   0.000000
   93       57.647400   0.000000
   94       58.133964   0.000000
   95       58.157982   0.000000
   96       58.932975   0.000000
   97       59.541606   0.000000
   98       59.593422   0.000000
   99       59.975938   0.000000
  100       60.293060   0.000000
  101       60.506340   0.000000
  102       60.692268   0.000000
  103       60.860937   0.000000
  104       61.138498   0.000000
  105       61.166933   0.000000
  106       61.217458   0.000000
  107       61.564182   0.000000
  108       61.758138   0.000000
  109       63.205535   0.000000
  110       63.362940   0.000000
  111       63.423025   0.000000
  112       63.830194   0.000000
  113       63.875665   0.000000
  114       64.205984   0.000000
  115       64.338011   0.000000
  116       64.558093   0.000000
  117       65.928381   0.000000
  118       66.262744   0.000000
  119       66.939404   0.000000
  120       66.999605   0.000000
  121       67.154762   0.000000
  122       67.905848   0.000000
  123       68.732980   0.000000
  124       69.033071   0.000000
  125       69.469894   0.000000
  126       69.879100   0.000000
  127       69.950981   0.000000
  128       70.238429   0.000000
 
  0.4062500E+00  0.3125000E-01  0.0000000E+00  0.1562500E-01
    1      -17.741826   1.000000
    2      -14.102907   1.000000
    3       -8.415496   1.000000
    4       -5.654290   1.000000
    5       -0.115664   0.000000
    6        4.760311   0.000000
    7        6.103452   0.000000
    8        7.002042   0.000000
    9        7.628079   0.000000
   10        9.183273   0.000000
   11        9.959464   0.000000
   12       10.464816   0.000000
   13       11.337911   0.000000
   14       12.316765   0.000000
   15       12.469122   0.000000
   16       13.650070   0.000000
   17       13.675213   0.000000
   18       13.967628   0.000000
   19       14.508460   0.000000
   20       15.638267   0.000000
   21       16.087260   0.000000
   22       17.681787   0.000000
   23       18.473245   0.000000
   24       18.822628   0.000000
   25       19.404558   0.000000
   26       20.143676   0.000000
   27       22.092632   0.000000
   28       23.108846   0.000000
   29       23.266468   0.000000
   30       24.352750   0.000000
   31       24.701909   0.000000
   32       24.866836   0.000000
   33       25.342579   0.000000
   34       26.305752   0.000000
   35       26.591795   0.000000
   36       26.734260   0.000000
   37       27.433406   0.000000
   38       27.851041   0.000000
   39       28.182399   0.000000
   40       29.159780   0.000000
   41       30.064708   0.000000
   42       30.215334   0.000000
   43       30.715671   0.000000
   44       30.949043   0.000000
   45       31.390341   0.000000
   46       32.531075   0.000000
   47       32.604507   0.000000
   48       33.748153   0.000000
   49       34.124775   0.000000
   50       34.909751   0.000000
   51       35.400604   0.000000
   52       36.428870   0.000000
   53       37.146632   0.000000
   54       38.890848   0.000000
   55       38.990751   0.000000
   56       39.819834   0.000000
   57       40.232577   0.000000
   58       41.257010   0.000000
   59       41.308422   0.000000
   60       43.212895   0.000000
   61       43.497827   0.000000
   62       43.864461   0.000000
   63       44.885169   0.000000
   64       45.798614   0.000000
   65       46.161040   0.000000
   66       46.669268   0.000000
   67       48.055123   0.000000
   68       48.160365   0.000000
   69       48.883757   0.000000
   70       49.507867   0.000000
   71       50.513863   0.000000
   72       50.766295   0.000000
   73       50.826321   0.000000
   74       51.355636   0.000000
   75       51.935872   0.000000
   76       52.096463   0.000000
   77       52.406748   0.000000
   78       52.716394   0.000000
   79       52.952853   0.000000
   80       53.102365   0.000000
   81       53.799194   0.000000
   82       54.012838   0.000000
   83       54.579051   0.000000
   84       54.720263   0.000000
   85       55.154193   0.000000
   86       55.299699   0.000000
   87       55.780667   0.000000
   88       56.174527   0.000000
   89       56.589404   0.000000
   90       57.067076   0.000000
   91       57.217390   0.000000
   92       57.446072   0.000000
   93       57.747023   0.000000
   94       58.171658   0.000000
   95       58.789614   0.000000
   96       59.032753   0.000000
   97       59.151285   0.000000
   98       59.220464   0.000000
   99       60.084973   0.000000
  100       60.165624   0.000000
  101       60.304834   0.000000
  102       61.755252   0.000000
  103       61.847361   0.000000
  104       62.455905   0.000000
  105       62.488120   0.000000
  106       63.100580   0.000000
  107       63.144047   0.000000
  108       63.336437   0.000000
  109       63.345482   0.000000
  110       63.667699   0.000000
  111       63.926998   0.000000
  112       64.678593   0.000000
  113       64.718968   0.000000
  114       64.865009   0.000000
  115       65.496486   0.000000
  116       65.589557   0.000000
  117       65.679633   0.000000
  118       65.764957   0.000000
  119       65.977871   0.000000
  120       67.266500   0.000000
  121       67.637841   0.000000