       N       E                     dE             d eps       ncg     rms          rms(c)
DAV:   1     0.395564878891E+02    0.39556E+02   -0.18342E+03 18432   0.461E+01
DAV:   2    -0.176193573868E+02   -0.57176E+02   -0.54004E+02 22200   0.253E+01
DAV:   3    -0.192269643903E+02   -0.16076E+01   -0.15942E+01 21592   0.371E+00
DAV:   4    -0.192296590351E+02   -0.26946E-02   -0.26943E-02 21232   0.146E-01
DAV:   5    -0.192296648161E+02   -0.57810E-05   -0.57800E-05 21024   0.674E-03    0.495E+00
DAV:   6    -0.185280012767E+02    0.70166E+00   -0.15257E-01 22208   0.373E-01    0.265E+00
DAV:   7    -0.182610745420E+02    0.26693E+00   -0.22263E-01 21080   0.430E-01    0.463E-01
DAV:   8    -0.182547836432E+02    0.62909E-02   -0.68203E-03 21696   0.738E-02    0.889E-02
DAV:   9    -0.182528561506E+02    0.19275E-02   -0.63292E-04 21728   0.174E-02    0.580E-02
DAV:  10    -0.182528268430E+02    0.29308E-04   -0.24465E-04 21360   0.101E-02    0.262E-02
DAV:  11    -0.182524655851E+02    0.36126E-03   -0.40802E-05 21376   0.575E-03    0.176E-02
DAV:  12    -0.182530727339E+02   -0.60715E-03   -0.32350E-05 20320   0.330E-03    0.101E-02
DAV:  13    -0.182536138389E+02   -0.54111E-03   -0.30598E-05 20576   0.371E-03    0.470E-03
DAV:  14    -0.182536494568E+02   -0.35618E-04   -0.18332E-06 21192   0.739E-04    0.321E-03
DAV:  15    -0.182537464651E+02   -0.97008E-04   -0.39644E-06 21200   0.869E-04    0.133E-03
DAV:  16    -0.182537615705E+02   -0.15105E-04   -0.92547E-08 21496   0.241E-04    0.486E-04
DAV:  17    -0.182537647257E+02   -0.31553E-05   -0.10152E-08 21256   0.137E-04    0.175E-04
DAV:  18    -0.182537653682E+02   -0.64246E-06   -0.62609E-09 20664   0.446E-05
   1 F= -.18253765E+02 E0= -.18253630E+02  d E =-.182538E+02
       N       E                     dE             d eps       ncg     rms          rms(c)
DAV:   1    -0.182546722569E+02   -0.90753E-03   -0.21610E-02 19952   0.124E-01    0.442E-02
DAV:   2    -0.182546500903E+02    0.22167E-04   -0.29150E-04 20824   0.147E-02    0.254E-02
DAV:   3    -0.182546320233E+02    0.18067E-04   -0.15449E-05 20648   0.468E-03    0.267E-03
DAV:   4    -0.182546320098E+02    0.13466E-07   -0.12093E-06 20680   0.984E-04
   2 F= -.18254632E+02 E0= -.18254373E+02  d E =-.866642E-03
       N       E                     dE             d eps       ncg     rms          rms(c)
DAV:   1    -0.182546505132E+02   -0.18490E-04   -0.58973E-04 20600   0.204E-02    0.731E-03
DAV:   2    -0.182546499050E+02    0.60815E-06   -0.84391E-06 20296   0.252E-03
   3 F= -.18254650E+02 E0= -.18254368E+02  d E =-.884537E-03
