 vasp.5.4.4.18Apr17-6-g9f103f2a35 (build Nov 22 2017 20:28:56) complex          
  
 executed on             LinuxIFC date 2019.10.06  20:00:31
 running on   28 total cores
 distrk:  each k-point on   28 cores,    1 groups
 distr:  one band on NCORES_PER_BAND=   7 cores,    4 groups


--------------------------------------------------------------------------------------------------------


 INCAR:
 POTCAR:   PAW_PBE C 08Apr2002                    
 POTCAR:   PAW_PBE C 08Apr2002                    
   VRHFIN =C: s2p2                                                              
   LEXCH  = PE                                                                  
   EATOM  =   147.1560 eV,   10.8157 Ry                                         
                                                                                
   TITEL  = PAW_PBE C 08Apr2002                                                 
   LULTRA =        F    use ultrasoft PP ?                                      
   IUNSCR =        0    unscreen: 0-lin 1-nonlin 2-no                           
   RPACOR =     .000    partial core radius                                     
   POMASS =   12.011; ZVAL   =    4.000    mass and valenz                      
   RCORE  =    1.500    outmost cutoff radius                                   
   RWIGS  =    1.630; RWIGS  =     .863    wigner-seitz radius (au A)           
   ENMAX  =  400.000; ENMIN  =  300.000 eV                                      
   ICORE  =        2    local potential                                         
   LCOR   =        T    correct aug charges                                     
   LPAW   =        T    paw PP                                                  
   EAUG   =  644.873                                                            
   DEXC   =     .000                                                            
   RMAX   =    2.266    core radius for proj-oper                               
   RAUG   =    1.300    factor for augmentation sphere                          
   RDEP   =    1.501    radius for radial grids                                 
   RDEPT  =    1.300    core radius for aug-charge                              
   QCUT   =   -5.516; QGAM   =   11.032    optimization parameters              
                                                                                
   Description                                                                  
     l     E      TYP  RCUT    TYP  RCUT                                        
     0   .000     23  1.200                                                     
     0   .000     23  1.200                                                     
     1   .000     23  1.500                                                     
     1  2.500     23  1.500                                                     
     2   .000      7  1.500                                                     
  local pseudopotential read in
  atomic valenz-charges read in
  non local Contribution for L=           0  read in
    real space projection operators read in
  non local Contribution for L=           0  read in
    real space projection operators read in
  non local Contribution for L=           1  read in
    real space projection operators read in
  non local Contribution for L=           1  read in
    real space projection operators read in
    PAW grid and wavefunctions read in
 
   number of l-projection  operators is LMAX  =           4
   number of lm-projection operators is LMMAX =           8
 
 PAW_PBE C 08Apr2002                    :
 energy of atom  1       EATOM= -147.1560
 kinetic energy error for atom=    0.0071 (will be added to EATOM!!)
 
 
 POSCAR:  C                                      
  positions in direct lattice
  No initial velocities read in
 exchange correlation table for  LEXCH =        8
   RHO(1)=    0.500       N(1)  =     2000
   RHO(2)=  100.500       N(2)  =     4000
 


--------------------------------------------------------------------------------------------------------


 ion  position               nearest neighbor table
   1  0.667  0.333  0.500-   2 1.43   2 1.49   2 1.49
   2  0.333  0.667  0.500-   1 1.43   1 1.49   1 1.49
 
  LATTYP: Found a base centered orthorhombic cell.
 ALAT       =     2.6165186530
 B/A-ratio  =     1.6340143072
 C/A-ratio  =     5.9324605712
  
  Lattice vectors:
  
 A1 = (   1.3082593265,  -2.1377144570,   0.0000000000)
 A2 = (   1.3082593265,   2.1377144570,   0.0000000000)
 A3 = (   0.0000000000,   0.0000000000,  15.5223937426)


Analysis of symmetry for initial positions (statically):
=====================================================================
 Subroutine PRICEL returns:
 Original cell was already a primitive cell.
 

 Routine SETGRP: Setting up the symmetry group for a 
 base centered orthorhombic supercell.


 Subroutine GETGRP returns: Found  8 space group operations
 (whereof  8 operations were pure point group operations)
 out of a pool of  8 trial point group operations.


The static configuration has the point symmetry D_2h.


Analysis of symmetry for dynamics (positions and initial velocities):
=====================================================================
 Subroutine PRICEL returns:
 Original cell was already a primitive cell.
 

 Routine SETGRP: Setting up the symmetry group for a 
 base centered orthorhombic supercell.


 Subroutine GETGRP returns: Found  8 space group operations
 (whereof  8 operations were pure point group operations)
 out of a pool of  8 trial point group operations.


The dynamic configuration has the point symmetry D_2h.


 Subroutine INISYM returns: Found  8 space group operations
 (whereof  8 operations are pure point group operations),
 and found     1 'primitive' translations

 
 
 KPOINTS: A                                       

Automatic generation of k-mesh.
Space group operators:
 irot       det(A)        alpha          n_x          n_y          n_z        tau_x        tau_y        tau_z
    1     1.000000     0.000001     1.000000     0.000000     0.000000     0.000000     0.000000     0.000000
    2    -1.000000     0.000001     1.000000     0.000000     0.000000     0.000000     0.000000     0.000000
    3     1.000000   179.999999     0.000000     0.000000     1.000000     0.000000     0.000000     0.000000
    4    -1.000000   179.999999     0.000000     0.000000     1.000000     0.000000     0.000000     0.000000
    5     1.000000   180.000000     0.000000     1.000000     0.000000     0.000000     0.000000     0.000000
    6    -1.000000   180.000000     0.000000     1.000000     0.000000     0.000000     0.000000     0.000000
    7     1.000000   179.999999     1.000000     0.000000     0.000000     0.000000     0.000000     0.000000
    8    -1.000000   179.999999     1.000000     0.000000     0.000000     0.000000     0.000000     0.000000
 
 Subroutine IBZKPT returns following result:
 ===========================================
 
 Found     72 irreducible k-points:
 
 Following reciprocal coordinates:
            Coordinates               Weight
  0.031250  0.031250  0.000000      2.000000
  0.093750  0.031250  0.000000      4.000000
  0.156250  0.031250  0.000000      4.000000
  0.218750  0.031250  0.000000      4.000000
  0.281250  0.031250  0.000000      4.000000
  0.343750  0.031250  0.000000      4.000000
  0.406250  0.031250  0.000000      4.000000
  0.468750  0.031250  0.000000      4.000000
 -0.468750  0.031250  0.000000      4.000000
 -0.406250  0.031250  0.000000      4.000000
 -0.343750  0.031250  0.000000      4.000000
 -0.281250  0.031250  0.000000      4.000000
 -0.218750  0.031250  0.000000      4.000000
 -0.156250  0.031250  0.000000      4.000000
 -0.093750  0.031250  0.000000      4.000000
 -0.031250  0.031250  0.000000      2.000000
  0.093750  0.093750  0.000000      2.000000
  0.156250  0.093750  0.000000      4.000000
  0.218750  0.093750  0.000000      4.000000
  0.281250  0.093750  0.000000      4.000000
  0.343750  0.093750  0.000000      4.000000
  0.406250  0.093750  0.000000      4.000000
  0.468750  0.093750  0.000000      4.000000
 -0.468750  0.093750  0.000000      4.000000
 -0.406250  0.093750  0.000000      4.000000
 -0.343750  0.093750  0.000000      4.000000
 -0.281250  0.093750  0.000000      4.000000
 -0.218750  0.093750  0.000000      4.000000
 -0.156250  0.093750  0.000000      4.000000
 -0.093750  0.093750  0.000000      2.000000
  0.156250  0.156250  0.000000      2.000000
  0.218750  0.156250  0.000000      4.000000
  0.281250  0.156250  0.000000      4.000000
  0.343750  0.156250  0.000000      4.000000
  0.406250  0.156250  0.000000      4.000000
  0.468750  0.156250  0.000000      4.000000
 -0.468750  0.156250  0.000000      4.000000
 -0.406250  0.156250  0.000000      4.000000
 -0.343750  0.156250  0.000000      4.000000
 -0.281250  0.156250  0.000000      4.000000
 -0.218750  0.156250  0.000000      4.000000
 -0.156250  0.156250  0.000000      2.000000
  0.218750  0.218750  0.000000      2.000000
  0.281250  0.218750  0.000000      4.000000
  0.343750  0.218750  0.000000      4.000000
  0.406250  0.218750  0.000000      4.000000
  0.468750  0.218750  0.000000      4.000000
 -0.468750  0.218750  0.000000      4.000000
 -0.406250  0.218750  0.000000      4.000000
 -0.343750  0.218750  0.000000      4.000000
 -0.281250  0.218750  0.000000      4.000000
 -0.218750  0.218750  0.000000      2.000000
  0.281250  0.281250  0.000000      2.000000
  0.343750  0.281250  0.000000      4.000000
  0.406250  0.281250  0.000000      4.000000
  0.468750  0.281250  0.000000      4.000000
 -0.468750  0.281250  0.000000      4.000000
 -0.406250  0.281250  0.000000      4.000000
 -0.343750  0.281250  0.000000      4.000000
 -0.281250  0.281250  0.000000      2.000000
  0.343750  0.343750  0.000000      2.000000
  0.406250  0.343750  0.000000      4.000000
  0.468750  0.343750  0.000000      4.000000
 -0.468750  0.343750  0.000000      4.000000
 -0.406250  0.343750  0.000000      4.000000
 -0.343750  0.343750  0.000000      2.000000
  0.406250  0.406250  0.000000      2.000000
  0.468750  0.406250  0.000000      4.000000
 -0.468750  0.406250  0.000000      4.000000
 -0.406250  0.406250  0.000000      2.000000
  0.468750  0.468750  0.000000      2.000000
 -0.468750  0.468750  0.000000      2.000000
 
 Following cartesian coordinates:
            Coordinates               Weight
  0.023887  0.000000  0.000000      2.000000
  0.047773 -0.014618  0.000000      4.000000
  0.071660 -0.029237  0.000000      4.000000
  0.095547 -0.043855  0.000000      4.000000
  0.119434 -0.058474  0.000000      4.000000
  0.143320 -0.073092  0.000000      4.000000
  0.167207 -0.087710  0.000000      4.000000
  0.191094 -0.102329  0.000000      4.000000
 -0.167207  0.116947  0.000000      4.000000
 -0.143320  0.102329  0.000000      4.000000
 -0.119434  0.087710  0.000000      4.000000
 -0.095547  0.073092  0.000000      4.000000
 -0.071660  0.058474  0.000000      4.000000
 -0.047773  0.043855  0.000000      4.000000
 -0.023887  0.029237  0.000000      4.000000
  0.000000  0.014618  0.000000      2.000000
  0.071660  0.000000  0.000000      2.000000
  0.095547 -0.014618  0.000000      4.000000
  0.119434 -0.029237  0.000000      4.000000
  0.143320 -0.043855  0.000000      4.000000
  0.167207 -0.058474  0.000000      4.000000
  0.191094 -0.073092  0.000000      4.000000
  0.214980 -0.087710  0.000000      4.000000
 -0.143320  0.131566  0.000000      4.000000
 -0.119434  0.116947  0.000000      4.000000
 -0.095547  0.102329  0.000000      4.000000
 -0.071660  0.087710  0.000000      4.000000
 -0.047773  0.073092  0.000000      4.000000
 -0.023887  0.058474  0.000000      4.000000
  0.000000  0.043855  0.000000      2.000000
  0.119434  0.000000  0.000000      2.000000
  0.143320 -0.014618  0.000000      4.000000
  0.167207 -0.029237  0.000000      4.000000
  0.191094 -0.043855  0.000000      4.000000
  0.214980 -0.058474  0.000000      4.000000
  0.238867 -0.073092  0.000000      4.000000
 -0.119434  0.146184  0.000000      4.000000
 -0.095547  0.131566  0.000000      4.000000
 -0.071660  0.116947  0.000000      4.000000
 -0.047773  0.102329  0.000000      4.000000
 -0.023887  0.087710  0.000000      4.000000
  0.000000  0.073092  0.000000      2.000000
  0.167207  0.000000  0.000000      2.000000
  0.191094 -0.014618  0.000000      4.000000
  0.214980 -0.029237  0.000000      4.000000
  0.238867 -0.043855  0.000000      4.000000
  0.262754 -0.058474  0.000000      4.000000
 -0.095547  0.160803  0.000000      4.000000
 -0.071660  0.146184  0.000000      4.000000
 -0.047773  0.131566  0.000000      4.000000
 -0.023887  0.116947  0.000000      4.000000
  0.000000  0.102329  0.000000      2.000000
  0.214980  0.000000  0.000000      2.000000
  0.238867 -0.014618  0.000000      4.000000
  0.262754 -0.029237  0.000000      4.000000
  0.286640 -0.043855  0.000000      4.000000
 -0.071660  0.175421  0.000000      4.000000
 -0.047773  0.160803  0.000000      4.000000
 -0.023887  0.146184  0.000000      4.000000
  0.000000  0.131566  0.000000      2.000000
  0.262754  0.000000  0.000000      2.000000
  0.286640 -0.014618  0.000000      4.000000
  0.310527 -0.029237  0.000000      4.000000
 -0.047773  0.190039  0.000000      4.000000
 -0.023887  0.175421  0.000000      4.000000
  0.000000  0.160803  0.000000      2.000000
  0.310527  0.000000  0.000000      2.000000
  0.334414 -0.014618  0.000000      4.000000
 -0.023887  0.204658  0.000000      4.000000
  0.000000  0.190039  0.000000      2.000000
  0.358301  0.000000  0.000000      2.000000
  0.000000  0.219276  0.000000      2.000000
 


--------------------------------------------------------------------------------------------------------




 Dimension of arrays:
   k-points           NKPTS =     72   k-points in BZ     NKDIM =     72   number of bands    NBANDS=    128
   number of dos      NEDOS =    301   number of ions     NIONS =      2
   non local maximal  LDIM  =      4   non local SUM 2l+1 LMDIM =      8
   total plane-waves  NPLWV =  48000
   max r-space proj   IRMAX =      1   max aug-charges    IRDMAX=   6723
   dimension x,y,z NGX =    20 NGY =   20 NGZ =  120
   dimension x,y,z NGXF=    40 NGYF=   40 NGZF=  240
   support grid    NGXF=    40 NGYF=   40 NGZF=  240
   ions per type =               2
   NGX,Y,Z   is equivalent  to a cutoff of  13.27, 13.27, 12.85 a.u.
   NGXF,Y,Z  is equivalent  to a cutoff of  26.53, 26.53, 25.70 a.u.

 SYSTEM =  unknown system                          
 POSCAR =   C                                      

 Startparameter for this run:
   NWRITE =      2    write-flag & timer
   PREC   = accura    normal or accurate (medium, high low for compatibility)
   ISTART =      0    job   : 0-new  1-cont  2-samecut
   ICHARG =      2    charge: 1-file 2-atom 10-const
   ISPIN  =      1    spin polarized calculation?
   LNONCOLLINEAR =      F non collinear calculations
   LSORBIT =      F    spin-orbit coupling
   INIWAV =      1    electr: 0-lowe 1-rand  2-diag
   LASPH  =      F    aspherical Exc in radial PAW
   METAGGA=      F    non-selfconsistent MetaGGA calc.

 Electronic Relaxation 1
   ENCUT  =  520.0 eV  38.22 Ry    6.18 a.u.   4.66  4.66 28.86*2*pi/ulx,y,z
   ENINI  =  520.0     initial cutoff
   ENAUG  =  644.9 eV  augmentation charge cutoff
   NELM   =     60;   NELMIN=  2; NELMDL= -5     # of ELM steps 
   EDIFF  = 0.1E-05   stopping-criterion for ELM
   LREAL  =      F    real-space projection
   NLSPLINE    = F    spline interpolate recip. space projectors
   LCOMPAT=      F    compatible to vasp.4.4
   GGA_COMPAT  = T    GGA compatible to vasp.4.4-vasp.4.6
   LMAXPAW     = -100 max onsite density
   LMAXMIX     =    2 max onsite mixed and CHGCAR
   VOSKOWN=      0    Vosko Wilk Nusair interpolation
   ROPT   =    0.00000
 Ionic relaxation
   EDIFFG = 0.1E-04   stopping-criterion for IOM
   NSW    =     50    number of steps for IOM
   NBLOCK =      1;   KBLOCK =     50    inner block; outer block 
   IBRION =      2    ionic relax: 0-MD 1-quasi-New 2-CG
   NFREE  =      1    steps in history (QN), initial steepest desc. (CG)
   ISIF   =      2    stress and relaxation
   IWAVPR =     11    prediction:  0-non 1-charg 2-wave 3-comb
   ISYM   =      2    0-nonsym 1-usesym 2-fastsym
   LCORR  =      T    Harris-Foulkes like correction to forces

   POTIM  = 0.1000    time-step for ionic-motion
   TEIN   =    0.0    initial temperature
   TEBEG  =    0.0;   TEEND  =   0.0 temperature during run
   SMASS  =  -3.00    Nose mass-parameter (am)
   estimated Nose-frequenzy (Omega)   =  0.10E-29 period in steps =****** mass=  -0.144E-27a.u.
   SCALEE = 1.0000    scale energy and forces
   NPACO  =    256;   APACO  = 16.0  distance and # of slots for P.C.
   PSTRESS=    0.0 pullay stress

  Mass of Ions in am
   POMASS =  12.01
  Ionic Valenz
   ZVAL   =   4.00
  Atomic Wigner-Seitz radii
   RWIGS  =  -1.00
  virtual crystal weights 
   VCA    =   1.00
   NELECT =       8.0000    total number of electrons
   NUPDOWN=      -1.0000    fix difference up-down

 DOS related values:
   EMIN   =  10.00;   EMAX   =-10.00  energy-range for DOS
   EFERMI =   0.00
   ISMEAR =     0;   SIGMA  =   0.10  broadening in eV -4-tet -1-fermi 0-gaus

 Electronic relaxation 2 (details)
   IALGO  =     38    algorithm
   LDIAG  =      T    sub-space diagonalisation (order eigenvalues)
   LSUBROT=      F    optimize rotation matrix (better conditioning)
   TURBO    =      0    0=normal 1=particle mesh
   IRESTART =      0    0=no restart 2=restart with 2 vectors
   NREBOOT  =      0    no. of reboots
   NMIN     =      0    reboot dimension
   EREF     =   0.00    reference energy to select bands
   IMIX   =      4    mixing-type and parameters
     AMIX     =   0.40;   BMIX     =  1.00
     AMIX_MAG =   1.60;   BMIX_MAG =  1.00
     AMIN     =   0.10
     WC   =   100.;   INIMIX=   1;  MIXPRE=   1;  MAXMIX= -45

 Intra band minimization:
   WEIMIN = 0.0010     energy-eigenvalue tresh-hold
   EBREAK =  0.20E-08  absolut break condition
   DEPER  =   0.30     relativ break condition  

   TIME   =   0.40     timestep for ELM

  volume/ion in A,a.u.               =      43.41       292.95
  Fermi-wavevector in a.u.,A,eV,Ry     =   0.739425  1.397310  7.438975  0.546749
  Thomas-Fermi vector in A             =   1.833585
 
 Write flags
   LWAVE        =      F    write WAVECAR
   LDOWNSAMPLE  =      F    k-point downsampling of WAVECAR
   LCHARG       =      F    write CHGCAR
   LVTOT        =      F    write LOCPOT, total local potential
   LVHAR        =      F    write LOCPOT, Hartree potential only
   LELF         =      F    write electronic localiz. function (ELF)
   LORBIT       =      0    0 simple, 1 ext, 2 COOP (PROOUT), +10 PAW based schemes


 Dipole corrections
   LMONO  =      F    monopole corrections only (constant potential shift)
   LDIPOL =      F    correct potential (dipole corrections)
   IDIPOL =      0    1-x, 2-y, 3-z, 4-all directions 
   EPSILON=  1.0000000 bulk dielectric constant

 Exchange correlation treatment:
   GGA     =    --    GGA type
   LEXCH   =     8    internal setting for exchange type
   VOSKOWN=      0    Vosko Wilk Nusair interpolation
   LHFCALC =     F    Hartree Fock is set to
   LHFONE  =     F    Hartree Fock one center treatment
   AEXX    =    0.0000 exact exchange contribution

 Linear response parameters
   LEPSILON=     F    determine dielectric tensor
   LRPA    =     F    only Hartree local field effects (RPA)
   LNABLA  =     F    use nabla operator in PAW spheres
   LVEL    =     F    velocity operator in full k-point grid
   LINTERFAST=   F  fast interpolation
   KINTER  =     0    interpolate to denser k-point grid
   CSHIFT  =0.1000    complex shift for real part using Kramers Kronig
   OMEGAMAX=  -1.0    maximum frequency
   DEG_THRESHOLD= 0.2000000E-02 threshold for treating states as degnerate
   RTIME   =   -0.100 relaxation time in fs
  (WPLASMAI=    0.000 imaginary part of plasma frequency in eV, 0.658/RTIME)
   DFIELD  = 0.0000000 0.0000000 0.0000000 field for delta impulse in time
 
 Orbital magnetization related:
   ORBITALMAG=     F  switch on orbital magnetization
   LCHIMAG   =     F  perturbation theory with respect to B field
   DQ        =  0.001000  dq finite difference perturbation B field
   LLRAUG    =     F  two centre corrections for induced B field



--------------------------------------------------------------------------------------------------------


 conjugate gradient relaxation of ions
 charge density and potential will be updated during run
 non-spin polarized calculation
 Variant of blocked Davidson
 Davidson routine will perform the subspace rotation
 perform sub-space diagonalisation
    after iterative eigenvector-optimisation
 modified Broyden-mixing scheme, WC =      100.0
 initial mixing is a Kerker type mixing with AMIX =  0.4000 and BMIX =      1.0000
 Hartree-type preconditioning will be used
 using additional bands          124
 reciprocal scheme for non local part
 calculate Harris-corrections to forces 
   (improved forces if not selfconsistent)
 use gradient corrections 
 use of overlap-Matrix (Vanderbilt PP)
 Gauss-broadening in eV      SIGMA  =   0.10


--------------------------------------------------------------------------------------------------------


  energy-cutoff  :      520.00
  volume of cell :       86.82
      direct lattice vectors                 reciprocal lattice vectors
     1.308259326 -2.137714457  0.000000000     0.382187224 -0.233894662  0.000000000
     1.308259326  2.137714457  0.000000000     0.382187224  0.233894662  0.000000000
     0.000000000  0.000000000 15.522393743     0.000000000  0.000000000  0.064423053

  length of vectors
     2.506265262  2.506265262 15.522393743     0.448077880  0.448077880  0.064423053


 
 k-points in units of 2pi/SCALE and weight: A                                       
   0.02388670  0.00000000  0.00000000       0.008
   0.04777340 -0.01461842  0.00000000       0.016
   0.07166010 -0.02923683  0.00000000       0.016
   0.09554681 -0.04385525  0.00000000       0.016
   0.11943351 -0.05847367  0.00000000       0.016
   0.14332021 -0.07309208  0.00000000       0.016
   0.16720691 -0.08771050  0.00000000       0.016
   0.19109361 -0.10232891  0.00000000       0.016
  -0.16720691  0.11694733  0.00000000       0.016
  -0.14332021  0.10232891  0.00000000       0.016
  -0.11943351  0.08771050  0.00000000       0.016
  -0.09554681  0.07309208  0.00000000       0.016
  -0.07166010  0.05847367  0.00000000       0.016
  -0.04777340  0.04385525  0.00000000       0.016
  -0.02388670  0.02923683  0.00000000       0.016
   0.00000000  0.01461842  0.00000000       0.008
   0.07166010  0.00000000  0.00000000       0.008
   0.09554681 -0.01461842  0.00000000       0.016
   0.11943351 -0.02923683  0.00000000       0.016
   0.14332021 -0.04385525  0.00000000       0.016
   0.16720691 -0.05847367  0.00000000       0.016
   0.19109361 -0.07309208  0.00000000       0.016
   0.21498031 -0.08771050  0.00000000       0.016
  -0.14332021  0.13156575  0.00000000       0.016
  -0.11943351  0.11694733  0.00000000       0.016
  -0.09554681  0.10232891  0.00000000       0.016
  -0.07166010  0.08771050  0.00000000       0.016
  -0.04777340  0.07309208  0.00000000       0.016
  -0.02388670  0.05847367  0.00000000       0.016
   0.00000000  0.04385525  0.00000000       0.008
   0.11943351  0.00000000  0.00000000       0.008
   0.14332021 -0.01461842  0.00000000       0.016
   0.16720691 -0.02923683  0.00000000       0.016
   0.19109361 -0.04385525  0.00000000       0.016
   0.21498031 -0.05847367  0.00000000       0.016
   0.23886701 -0.07309208  0.00000000       0.016
  -0.11943351  0.14618416  0.00000000       0.016
  -0.09554681  0.13156575  0.00000000       0.016
  -0.07166010  0.11694733  0.00000000       0.016
  -0.04777340  0.10232891  0.00000000       0.016
  -0.02388670  0.08771050  0.00000000       0.016
   0.00000000  0.07309208  0.00000000       0.008
   0.16720691  0.00000000  0.00000000       0.008
   0.19109361 -0.01461842  0.00000000       0.016
   0.21498031 -0.02923683  0.00000000       0.016
   0.23886701 -0.04385525  0.00000000       0.016
   0.26275372 -0.05847367  0.00000000       0.016
  -0.09554681  0.16080258  0.00000000       0.016
  -0.07166010  0.14618416  0.00000000       0.016
  -0.04777340  0.13156575  0.00000000       0.016
  -0.02388670  0.11694733  0.00000000       0.016
   0.00000000  0.10232891  0.00000000       0.008
   0.21498031  0.00000000  0.00000000       0.008
   0.23886701 -0.01461842  0.00000000       0.016
   0.26275372 -0.02923683  0.00000000       0.016
   0.28664042 -0.04385525  0.00000000       0.016
  -0.07166010  0.17542100  0.00000000       0.016
  -0.04777340  0.16080258  0.00000000       0.016
  -0.02388670  0.14618416  0.00000000       0.016
   0.00000000  0.13156575  0.00000000       0.008
   0.26275372  0.00000000  0.00000000       0.008
   0.28664042 -0.01461842  0.00000000       0.016
   0.31052712 -0.02923683  0.00000000       0.016
  -0.04777340  0.19003941  0.00000000       0.016
  -0.02388670  0.17542100  0.00000000       0.016
   0.00000000  0.16080258  0.00000000       0.008
   0.31052712  0.00000000  0.00000000       0.008
   0.33441382 -0.01461842  0.00000000       0.016
  -0.02388670  0.20465783  0.00000000       0.016
   0.00000000  0.19003941  0.00000000       0.008
   0.35830052  0.00000000  0.00000000       0.008
   0.00000000  0.21927625  0.00000000       0.008
 
 k-points in reciprocal lattice and weights: A                                       
   0.03125000  0.03125000  0.00000000       0.008
   0.09375000  0.03125000  0.00000000       0.016
   0.15625000  0.03125000  0.00000000       0.016
   0.21875000  0.03125000  0.00000000       0.016
   0.28125000  0.03125000  0.00000000       0.016
   0.34375000  0.03125000  0.00000000       0.016
   0.40625000  0.03125000  0.00000000       0.016
   0.46875000  0.03125000  0.00000000       0.016
  -0.46875000  0.03125000  0.00000000       0.016
  -0.40625000  0.03125000  0.00000000       0.016
  -0.34375000  0.03125000  0.00000000       0.016
  -0.28125000  0.03125000  0.00000000       0.016
  -0.21875000  0.03125000  0.00000000       0.016
  -0.15625000  0.03125000  0.00000000       0.016
  -0.09375000  0.03125000  0.00000000       0.016
  -0.03125000  0.03125000  0.00000000       0.008
   0.09375000  0.09375000  0.00000000       0.008
   0.15625000  0.09375000  0.00000000       0.016
   0.21875000  0.09375000  0.00000000       0.016
   0.28125000  0.09375000  0.00000000       0.016
   0.34375000  0.09375000  0.00000000       0.016
   0.40625000  0.09375000  0.00000000       0.016
   0.46875000  0.09375000  0.00000000       0.016
  -0.46875000  0.09375000  0.00000000       0.016
  -0.40625000  0.09375000  0.00000000       0.016
  -0.34375000  0.09375000  0.00000000       0.016
  -0.28125000  0.09375000  0.00000000       0.016
  -0.21875000  0.09375000  0.00000000       0.016
  -0.15625000  0.09375000  0.00000000       0.016
  -0.09375000  0.09375000  0.00000000       0.008
   0.15625000  0.15625000  0.00000000       0.008
   0.21875000  0.15625000  0.00000000       0.016
   0.28125000  0.15625000  0.00000000       0.016
   0.34375000  0.15625000  0.00000000       0.016
   0.40625000  0.15625000  0.00000000       0.016
   0.46875000  0.15625000  0.00000000       0.016
  -0.46875000  0.15625000  0.00000000       0.016
  -0.40625000  0.15625000  0.00000000       0.016
  -0.34375000  0.15625000  0.00000000       0.016
  -0.28125000  0.15625000  0.00000000       0.016
  -0.21875000  0.15625000  0.00000000       0.016
  -0.15625000  0.15625000  0.00000000       0.008
   0.21875000  0.21875000  0.00000000       0.008
   0.28125000  0.21875000  0.00000000       0.016
   0.34375000  0.21875000  0.00000000       0.016
   0.40625000  0.21875000  0.00000000       0.016
   0.46875000  0.21875000  0.00000000       0.016
  -0.46875000  0.21875000  0.00000000       0.016
  -0.40625000  0.21875000  0.00000000       0.016
  -0.34375000  0.21875000  0.00000000       0.016
  -0.28125000  0.21875000  0.00000000       0.016
  -0.21875000  0.21875000  0.00000000       0.008
   0.28125000  0.28125000  0.00000000       0.008
   0.34375000  0.28125000  0.00000000       0.016
   0.40625000  0.28125000  0.00000000       0.016
   0.46875000  0.28125000  0.00000000       0.016
  -0.46875000  0.28125000  0.00000000       0.016
  -0.40625000  0.28125000  0.00000000       0.016
  -0.34375000  0.28125000  0.00000000       0.016
  -0.28125000  0.28125000  0.00000000       0.008
   0.34375000  0.34375000  0.00000000       0.008
   0.40625000  0.34375000  0.00000000       0.016
   0.46875000  0.34375000  0.00000000       0.016
  -0.46875000  0.34375000  0.00000000       0.016
  -0.40625000  0.34375000  0.00000000       0.016
  -0.34375000  0.34375000  0.00000000       0.008
   0.40625000  0.40625000  0.00000000       0.008
   0.46875000  0.40625000  0.00000000       0.016
  -0.46875000  0.40625000  0.00000000       0.016
  -0.40625000  0.40625000  0.00000000       0.008
   0.46875000  0.46875000  0.00000000       0.008
  -0.46875000  0.46875000  0.00000000       0.008
 
 position of ions in fractional coordinates (direct lattice) 
   0.66666762  0.33333238  0.50000000
   0.33333238  0.66666762  0.50000000
 
 position of ions in cartesian coordinates  (Angst):
   1.30825933 -0.71257557  7.76119687
   1.30825933  0.71257557  7.76119687
 


--------------------------------------------------------------------------------------------------------


 k-point  1 :   0.0312 0.0312 0.0000  plane waves:    2345
 k-point  2 :   0.0937 0.0313 0.0000  plane waves:    2336
 k-point  3 :   0.1562 0.0313 0.0000  plane waves:    2337
 k-point  4 :   0.2187 0.0313 0.0000  plane waves:    2353
 k-point  5 :   0.2812 0.0312 0.0000  plane waves:    2346
 k-point  6 :   0.3437 0.0313 0.0000  plane waves:    2347
 k-point  7 :   0.4062 0.0313 0.0000  plane waves:    2356
 k-point  8 :   0.4687 0.0313 0.0000  plane waves:    2344
 k-point  9 :  -0.4687 0.0312 0.0000  plane waves:    2353
 k-point 10 :  -0.4062 0.0312 0.0000  plane waves:    2351
 k-point 11 :  -0.3437 0.0312 0.0000  plane waves:    2346
 k-point 12 :  -0.2812 0.0312 0.0000  plane waves:    2353
 k-point 13 :  -0.2187 0.0312 0.0000  plane waves:    2344
 k-point 14 :  -0.1562 0.0312 0.0000  plane waves:    2340
 k-point 15 :  -0.0937 0.0312 0.0000  plane waves:    2350
 k-point 16 :  -0.0312 0.0312 0.0000  plane waves:    2346
 k-point 17 :   0.0938 0.0938 0.0000  plane waves:    2325
 k-point 18 :   0.1562 0.0938 0.0000  plane waves:    2332
 k-point 19 :   0.2187 0.0938 0.0000  plane waves:    2348
 k-point 20 :   0.2812 0.0938 0.0000  plane waves:    2352
 k-point 21 :   0.3437 0.0938 0.0000  plane waves:    2340
 k-point 22 :   0.4062 0.0938 0.0000  plane waves:    2354
 k-point 23 :   0.4687 0.0938 0.0000  plane waves:    2349
 k-point 24 :  -0.4687 0.0937 0.0000  plane waves:    2348
 k-point 25 :  -0.4062 0.0937 0.0000  plane waves:    2352
 k-point 26 :  -0.3437 0.0937 0.0000  plane waves:    2339
 k-point 27 :  -0.2812 0.0937 0.0000  plane waves:    2348
 k-point 28 :  -0.2187 0.0937 0.0000  plane waves:    2339
 k-point 29 :  -0.1562 0.0937 0.0000  plane waves:    2344
 k-point 30 :  -0.0937 0.0937 0.0000  plane waves:    2356
 k-point 31 :   0.1562 0.1562 0.0000  plane waves:    2341
 k-point 32 :   0.2188 0.1562 0.0000  plane waves:    2339
 k-point 33 :   0.2812 0.1562 0.0000  plane waves:    2340
 k-point 34 :   0.3437 0.1562 0.0000  plane waves:    2340
 k-point 35 :   0.4062 0.1563 0.0000  plane waves:    2347
 k-point 36 :   0.4687 0.1562 0.0000  plane waves:    2351
 k-point 37 :  -0.4687 0.1562 0.0000  plane waves:    2355
 k-point 38 :  -0.4062 0.1562 0.0000  plane waves:    2348
 k-point 39 :  -0.3437 0.1562 0.0000  plane waves:    2328
 k-point 40 :  -0.2812 0.1562 0.0000  plane waves:    2337
 k-point 41 :  -0.2187 0.1562 0.0000  plane waves:    2331
 k-point 42 :  -0.1562 0.1562 0.0000  plane waves:    2352
 k-point 43 :   0.2187 0.2187 0.0000  plane waves:    2341
 k-point 44 :   0.2812 0.2187 0.0000  plane waves:    2336
 k-point 45 :   0.3437 0.2188 0.0000  plane waves:    2349
 k-point 46 :   0.4062 0.2188 0.0000  plane waves:    2347
 k-point 47 :   0.4687 0.2187 0.0000  plane waves:    2344
 k-point 48 :  -0.4687 0.2187 0.0000  plane waves:    2334
 k-point 49 :  -0.4062 0.2187 0.0000  plane waves:    2334
 k-point 50 :  -0.3437 0.2187 0.0000  plane waves:    2325
 k-point 51 :  -0.2812 0.2187 0.0000  plane waves:    2329
 k-point 52 :  -0.2187 0.2187 0.0000  plane waves:    2334
 k-point 53 :   0.2812 0.2812 0.0000  plane waves:    2347
 k-point 54 :   0.3437 0.2812 0.0000  plane waves:    2332
 k-point 55 :   0.4062 0.2812 0.0000  plane waves:    2320
 k-point 56 :   0.4687 0.2812 0.0000  plane waves:    2321
 k-point 57 :  -0.4687 0.2812 0.0000  plane waves:    2323
 k-point 58 :  -0.4062 0.2812 0.0000  plane waves:    2331
 k-point 59 :  -0.3437 0.2812 0.0000  plane waves:    2321
 k-point 60 :  -0.2812 0.2812 0.0000  plane waves:    2324
 k-point 61 :   0.3437 0.3437 0.0000  plane waves:    2315
 k-point 62 :   0.4062 0.3438 0.0000  plane waves:    2312
 k-point 63 :   0.4687 0.3438 0.0000  plane waves:    2308
 k-point 64 :  -0.4687 0.3437 0.0000  plane waves:    2303
 k-point 65 :  -0.4062 0.3437 0.0000  plane waves:    2310
 k-point 66 :  -0.3437 0.3437 0.0000  plane waves:    2312
 k-point 67 :   0.4062 0.4062 0.0000  plane waves:    2307
 k-point 68 :   0.4687 0.4062 0.0000  plane waves:    2316
 k-point 69 :  -0.4687 0.4062 0.0000  plane waves:    2312
 k-point 70 :  -0.4062 0.4062 0.0000  plane waves:    2306
 k-point 71 :   0.4687 0.4687 0.0000  plane waves:    2326
 k-point 72 :  -0.4687 0.4687 0.0000  plane waves:    2330

 maximum and minimum number of plane-waves per node :       354      317

 maximum number of plane-waves:      2356
 maximum index in each direction: 
   IXMAX=    5   IYMAX=    4   IZMAX=   28
   IXMIN=   -5   IYMIN=   -5   IZMIN=  -28


 parallel 3D FFT for wavefunctions:
    minimum data exchange during FFTs selected (reduces bandwidth)
 parallel 3D FFT for charge:
    minimum data exchange during FFTs selected (reduces bandwidth)


 total amount of memory used by VASP MPI-rank0    47104. kBytes
=======================================================================

   base      :      30000. kBytes
   nonl-proj :       1651. kBytes
   fftplans  :        817. kBytes
   grid      :       1215. kBytes
   one-center:          3. kBytes
   wavefun   :      13418. kBytes
 
     INWAV:  cpu time    0.0000: real time    0.0003
 Broyden mixing: mesh for mixing (old mesh)
   NGX =  9   NGY =  9   NGZ = 57
  (NGX  = 40   NGY  = 40   NGZ  =240)
  gives a total of   4617 points

 initial charge density was supplied:
 charge density of overlapping atoms calculated
 number of electron       8.0000000 magnetization 
 keeping initial charge density in first step


--------------------------------------------------------------------------------------------------------


 Maximum index for augmentation-charges          377 (set IRDMAX)


--------------------------------------------------------------------------------------------------------


 First call to EWALD:  gamma=   0.400
 Maximum number of real-space cells 5x 5x 1
 Maximum number of reciprocal cells 2x 2x 8

    FEWALD:  cpu time    0.0020: real time    0.0015


--------------------------------------- Iteration      1(   1)  ---------------------------------------


    POTLOK:  cpu time    0.0130: real time    0.0141
    SETDIJ:  cpu time    0.0020: real time    0.0015
     EDDAV:  cpu time    3.5905: real time    3.5947
       DOS:  cpu time    0.0030: real time    0.0034
    --------------------------------------------
      LOOP:  cpu time    3.6085: real time    3.6137

 eigenvalue-minimisations  : 18432
 total energy-change (2. order) : 0.3955649E+02  (-0.1834182E+03)
 number of electron       8.0000000 magnetization 
 augmentation part        8.0000000 magnetization 

 Free energy of the ion-electron system (eV)
  ---------------------------------------------------
  alpha Z        PSCENC =         3.75387374
  Ewald energy   TEWEN  =       817.44091337
  -Hartree energ DENC   =     -1039.72211745
  -exchange      EXHF   =         0.00000000
  -V(xc)+E(xc)   XCENC  =        27.15425704
  PAW double counting   =        75.66288619      -77.96384553
  entropy T*S    EENTRO =        -0.00000011
  eigenvalues    EBANDS =       -61.06726598
  atomic energy  EATOM  =       294.29778662
  Solvation  Ediel_sol  =         0.00000000
  ---------------------------------------------------
  free energy    TOTEN  =        39.55648789 eV

  energy without entropy =       39.55648800  energy(sigma->0) =       39.55648794


--------------------------------------------------------------------------------------------------------




--------------------------------------- Iteration      1(   2)  ---------------------------------------


     EDDAV:  cpu time    4.0824: real time    4.0852
       DOS:  cpu time    0.0040: real time    0.0048
    --------------------------------------------
      LOOP:  cpu time    4.0864: real time    4.0900

 eigenvalue-minimisations  : 22200
 total energy-change (2. order) :-0.5717585E+02  (-0.5400431E+02)
 number of electron       8.0000000 magnetization 
 augmentation part        8.0000000 magnetization 

 Free energy of the ion-electron system (eV)
  ---------------------------------------------------
  alpha Z        PSCENC =         3.75387374
  Ewald energy   TEWEN  =       817.44091337
  -Hartree energ DENC   =     -1039.72211745
  -exchange      EXHF   =         0.00000000
  -V(xc)+E(xc)   XCENC  =        27.15425704
  PAW double counting   =        75.66288619      -77.96384553
  entropy T*S    EENTRO =        -0.00011089
  eigenvalues    EBANDS =      -118.24300048
  atomic energy  EATOM  =       294.29778662
  Solvation  Ediel_sol  =         0.00000000
  ---------------------------------------------------
  free energy    TOTEN  =       -17.61935739 eV

  energy without entropy =      -17.61924650  energy(sigma->0) =      -17.61930194


--------------------------------------------------------------------------------------------------------




--------------------------------------- Iteration      1(   3)  ---------------------------------------


     EDDAV:  cpu time    4.0014: real time    4.0165
       DOS:  cpu time    0.0050: real time    0.0047
    --------------------------------------------
      LOOP:  cpu time    4.0064: real time    4.0212

 eigenvalue-minimisations  : 21592
 total energy-change (2. order) :-0.1607607E+01  (-0.1594178E+01)
 number of electron       8.0000000 magnetization 
 augmentation part        8.0000000 magnetization 

 Free energy of the ion-electron system (eV)
  ---------------------------------------------------
  alpha Z        PSCENC =         3.75387374
  Ewald energy   TEWEN  =       817.44091337
  -Hartree energ DENC   =     -1039.72211745
  -exchange      EXHF   =         0.00000000
  -V(xc)+E(xc)   XCENC  =        27.15425704
  PAW double counting   =        75.66288619      -77.96384553
  entropy T*S    EENTRO =        -0.00006640
  eigenvalues    EBANDS =      -119.85065197
  atomic energy  EATOM  =       294.29778662
  Solvation  Ediel_sol  =         0.00000000
  ---------------------------------------------------
  free energy    TOTEN  =       -19.22696439 eV

  energy without entropy =      -19.22689799  energy(sigma->0) =      -19.22693119


--------------------------------------------------------------------------------------------------------




--------------------------------------- Iteration      1(   4)  ---------------------------------------


     EDDAV:  cpu time    3.9564: real time    3.9719
       DOS:  cpu time    0.0040: real time    0.0048
    --------------------------------------------
      LOOP:  cpu time    3.9604: real time    3.9767

 eigenvalue-minimisations  : 21232
 total energy-change (2. order) :-0.2694645E-02  (-0.2694333E-02)
 number of electron       8.0000000 magnetization 
 augmentation part        8.0000000 magnetization 

 Free energy of the ion-electron system (eV)
  ---------------------------------------------------
  alpha Z        PSCENC =         3.75387374
  Ewald energy   TEWEN  =       817.44091337
  -Hartree energ DENC   =     -1039.72211745
  -exchange      EXHF   =         0.00000000
  -V(xc)+E(xc)   XCENC  =        27.15425704
  PAW double counting   =        75.66288619      -77.96384553
  entropy T*S    EENTRO =        -0.00006636
  eigenvalues    EBANDS =      -119.85334665
  atomic energy  EATOM  =       294.29778662
  Solvation  Ediel_sol  =         0.00000000
  ---------------------------------------------------
  free energy    TOTEN  =       -19.22965904 eV

  energy without entropy =      -19.22959267  energy(sigma->0) =      -19.22962585


--------------------------------------------------------------------------------------------------------




--------------------------------------- Iteration      1(   5)  ---------------------------------------


     EDDAV:  cpu time    3.9194: real time    3.9231
       DOS:  cpu time    0.0050: real time    0.0048
    CHARGE:  cpu time    0.0140: real time    0.0140
    MIXING:  cpu time    0.0010: real time    0.0009
    --------------------------------------------
      LOOP:  cpu time    3.9394: real time    3.9428

 eigenvalue-minimisations  : 21024
 total energy-change (2. order) :-0.5780951E-05  (-0.5779995E-05)
 number of electron       7.9999999 magnetization 
 augmentation part        0.1974610 magnetization 

 Broyden mixing:
  rms(total) = 0.49490E+00    rms(broyden)= 0.49480E+00
  rms(prec ) = 0.56556E+00
  weight for this iteration     100.00

 Free energy of the ion-electron system (eV)
  ---------------------------------------------------
  alpha Z        PSCENC =         3.75387374
  Ewald energy   TEWEN  =       817.44091337
  -Hartree energ DENC   =     -1039.72211745
  -exchange      EXHF   =         0.00000000
  -V(xc)+E(xc)   XCENC  =        27.15425704
  PAW double counting   =        75.66288619      -77.96384553
  entropy T*S    EENTRO =        -0.00006636
  eigenvalues    EBANDS =      -119.85335243
  atomic energy  EATOM  =       294.29778662
  Solvation  Ediel_sol  =         0.00000000
  ---------------------------------------------------
  free energy    TOTEN  =       -19.22966482 eV

  energy without entropy =      -19.22959845  energy(sigma->0) =      -19.22963163


--------------------------------------------------------------------------------------------------------




--------------------------------------- Iteration      1(   6)  ---------------------------------------


    POTLOK:  cpu time    0.0100: real time    0.0093
    SETDIJ:  cpu time    0.0010: real time    0.0013
     EDDAV:  cpu time    4.0814: real time    4.0850
       DOS:  cpu time    0.0050: real time    0.0048
    CHARGE:  cpu time    0.0130: real time    0.0136
    MIXING:  cpu time    0.0010: real time    0.0006
    --------------------------------------------
      LOOP:  cpu time    4.1114: real time    4.1147

 eigenvalue-minimisations  : 22208
 total energy-change (2. order) : 0.7016635E+00  (-0.1525717E-01)
 number of electron       7.9999999 magnetization 
 augmentation part        0.1891610 magnetization 

 Broyden mixing:
  rms(total) = 0.26454E+00    rms(broyden)= 0.26453E+00
  rms(prec ) = 0.30333E+00
  weight for this iteration     100.00

 eigenvalues of (default mixing * dielectric matrix)
  average eigenvalue GAMMA=   2.0764
  2.0764

 Free energy of the ion-electron system (eV)
  ---------------------------------------------------
  alpha Z        PSCENC =         3.75387374
  Ewald energy   TEWEN  =       817.44091337
  -Hartree energ DENC   =     -1049.25196244
  -exchange      EXHF   =         0.00000000
  -V(xc)+E(xc)   XCENC  =        27.59768410
  PAW double counting   =        98.42689974     -100.88318352
  entropy T*S    EENTRO =        -0.00014899
  eigenvalues    EBANDS =      -109.90986390
  atomic energy  EATOM  =       294.29778662
  Solvation  Ediel_sol  =         0.00000000
  ---------------------------------------------------
  free energy    TOTEN  =       -18.52800128 eV

  energy without entropy =      -18.52785228  energy(sigma->0) =      -18.52792678


--------------------------------------------------------------------------------------------------------




--------------------------------------- Iteration      1(   7)  ---------------------------------------


    POTLOK:  cpu time    0.0090: real time    0.0094
    SETDIJ:  cpu time    0.0020: real time    0.0013
     EDDAV:  cpu time    4.0044: real time    4.0093
       DOS:  cpu time    0.0050: real time    0.0051
    CHARGE:  cpu time    0.0140: real time    0.0138
    MIXING:  cpu time    0.0010: real time    0.0004
    --------------------------------------------
      LOOP:  cpu time    4.0354: real time    4.0394

 eigenvalue-minimisations  : 21080
 total energy-change (2. order) : 0.2669267E+00  (-0.2226335E-01)
 number of electron       8.0000000 magnetization 
 augmentation part        0.1797247 magnetization 

 Broyden mixing:
  rms(total) = 0.46324E-01    rms(broyden)= 0.46262E-01
  rms(prec ) = 0.55510E-01
  weight for this iteration     100.00

 eigenvalues of (default mixing * dielectric matrix)
  average eigenvalue GAMMA=   2.2502
  2.2502  2.2502

 Free energy of the ion-electron system (eV)
  ---------------------------------------------------
  alpha Z        PSCENC =         3.75387374
  Ewald energy   TEWEN  =       817.44091337
  -Hartree energ DENC   =     -1061.34996016
  -exchange      EXHF   =         0.00000000
  -V(xc)+E(xc)   XCENC  =        28.14912217
  PAW double counting   =       127.03413617     -129.62608574
  entropy T*S    EENTRO =        -0.00028583
  eigenvalues    EBANDS =       -97.96057488
  atomic energy  EATOM  =       294.29778662
  Solvation  Ediel_sol  =         0.00000000
  ---------------------------------------------------
  free energy    TOTEN  =       -18.26107454 eV

  energy without entropy =      -18.26078871  energy(sigma->0) =      -18.26093162


--------------------------------------------------------------------------------------------------------




--------------------------------------- Iteration      1(   8)  ---------------------------------------


    POTLOK:  cpu time    0.0130: real time    0.0185
    SETDIJ:  cpu time    0.0010: real time    0.0013
     EDDAV:  cpu time    4.0104: real time    4.0137
       DOS:  cpu time    0.0050: real time    0.0050
    CHARGE:  cpu time    0.0130: real time    0.0136
    MIXING:  cpu time    0.0010: real time    0.0004
    --------------------------------------------
      LOOP:  cpu time    4.0434: real time    4.0525

 eigenvalue-minimisations  : 21696
 total energy-change (2. order) : 0.6290899E-02  (-0.6820296E-03)
 number of electron       8.0000000 magnetization 
 augmentation part        0.1793799 magnetization 

 Broyden mixing:
  rms(total) = 0.88905E-02    rms(broyden)= 0.88725E-02
  rms(prec ) = 0.18866E-01
  weight for this iteration     100.00

 eigenvalues of (default mixing * dielectric matrix)
  average eigenvalue GAMMA=   1.9697
  1.1259  2.0090  2.7743

 Free energy of the ion-electron system (eV)
  ---------------------------------------------------
  alpha Z        PSCENC =         3.75387374
  Ewald energy   TEWEN  =       817.44091337
  -Hartree energ DENC   =     -1063.54376863
  -exchange      EXHF   =         0.00000000
  -V(xc)+E(xc)   XCENC  =        28.17218505
  PAW double counting   =       127.44397793     -129.98230437
  entropy T*S    EENTRO =        -0.00026093
  eigenvalues    EBANDS =       -95.83718643
  atomic energy  EATOM  =       294.29778662
  Solvation  Ediel_sol  =         0.00000000
  ---------------------------------------------------
  free energy    TOTEN  =       -18.25478364 eV

  energy without entropy =      -18.25452272  energy(sigma->0) =      -18.25465318


--------------------------------------------------------------------------------------------------------




--------------------------------------- Iteration      1(   9)  ---------------------------------------


    POTLOK:  cpu time    0.0100: real time    0.0108
    SETDIJ:  cpu time    0.0010: real time    0.0013
     EDDAV:  cpu time    4.0224: real time    4.0259
       DOS:  cpu time    0.0050: real time    0.0048
    CHARGE:  cpu time    0.0130: real time    0.0136
    MIXING:  cpu time    0.0010: real time    0.0004
    --------------------------------------------
      LOOP:  cpu time    4.0524: real time    4.0569

 eigenvalue-minimisations  : 21728
 total energy-change (2. order) : 0.1927493E-02  (-0.6329172E-04)
 number of electron       8.0000000 magnetization 
 augmentation part        0.1789981 magnetization 

 Broyden mixing:
  rms(total) = 0.57953E-02    rms(broyden)= 0.57918E-02
  rms(prec ) = 0.12829E-01
  weight for this iteration     100.00

 eigenvalues of (default mixing * dielectric matrix)
  average eigenvalue GAMMA=   2.0478
  1.0487  1.9020  2.6202  2.6202

 Free energy of the ion-electron system (eV)
  ---------------------------------------------------
  alpha Z        PSCENC =         3.75387374
  Ewald energy   TEWEN  =       817.44091337
  -Hartree energ DENC   =     -1065.00492122
  -exchange      EXHF   =         0.00000000
  -V(xc)+E(xc)   XCENC  =        28.20609729
  PAW double counting   =       128.35140947     -130.88701777
  entropy T*S    EENTRO =        -0.00026809
  eigenvalues    EBANDS =       -94.41072957
  atomic energy  EATOM  =       294.29778662
  Solvation  Ediel_sol  =         0.00000000
  ---------------------------------------------------
  free energy    TOTEN  =       -18.25285615 eV

  energy without entropy =      -18.25258806  energy(sigma->0) =      -18.25272211


--------------------------------------------------------------------------------------------------------




--------------------------------------- Iteration      1(  10)  ---------------------------------------


    POTLOK:  cpu time    0.0100: real time    0.0103
    SETDIJ:  cpu time    0.0020: real time    0.0013
     EDDAV:  cpu time    3.9664: real time    3.9698
       DOS:  cpu time    0.0050: real time    0.0051
    CHARGE:  cpu time    0.0140: real time    0.0136
    MIXING:  cpu time    0.0000: real time    0.0005
    --------------------------------------------
      LOOP:  cpu time    3.9974: real time    4.0005

 eigenvalue-minimisations  : 21360
 total energy-change (2. order) : 0.2930759E-04  (-0.2446499E-04)
 number of electron       8.0000000 magnetization 
 augmentation part        0.1788511 magnetization 

 Broyden mixing:
  rms(total) = 0.26165E-02    rms(broyden)= 0.26148E-02
  rms(prec ) = 0.58472E-02
  weight for this iteration     100.00

 eigenvalues of (default mixing * dielectric matrix)
  average eigenvalue GAMMA=   2.2271
  4.2038  2.5836  0.9807  1.9159  1.4517

 Free energy of the ion-electron system (eV)
  ---------------------------------------------------
  alpha Z        PSCENC =         3.75387374
  Ewald energy   TEWEN  =       817.44091337
  -Hartree energ DENC   =     -1066.71442830
  -exchange      EXHF   =         0.00000000
  -V(xc)+E(xc)   XCENC  =        28.22060621
  PAW double counting   =       127.46063043     -129.99630665
  entropy T*S    EENTRO =        -0.00027461
  eigenvalues    EBANDS =       -92.71562765
  atomic energy  EATOM  =       294.29778662
  Solvation  Ediel_sol  =         0.00000000
  ---------------------------------------------------
  free energy    TOTEN  =       -18.25282684 eV

  energy without entropy =      -18.25255223  energy(sigma->0) =      -18.25268954


--------------------------------------------------------------------------------------------------------




--------------------------------------- Iteration      1(  11)  ---------------------------------------


    POTLOK:  cpu time    0.0100: real time    0.0099
    SETDIJ:  cpu time    0.0020: real time    0.0013
     EDDAV:  cpu time    3.9654: real time    3.9692
       DOS:  cpu time    0.0040: real time    0.0050
    CHARGE:  cpu time    0.0140: real time    0.0136
    MIXING:  cpu time    0.0020: real time    0.0005
    --------------------------------------------
      LOOP:  cpu time    3.9974: real time    3.9995

 eigenvalue-minimisations  : 21376
 total energy-change (2. order) : 0.3612578E-03  (-0.4080192E-05)
 number of electron       8.0000000 magnetization 
 augmentation part        0.1787982 magnetization 

 Broyden mixing:
  rms(total) = 0.17636E-02    rms(broyden)= 0.17632E-02
  rms(prec ) = 0.36132E-02
  weight for this iteration     100.00

 eigenvalues of (default mixing * dielectric matrix)
  average eigenvalue GAMMA=   2.4931
  5.6641  2.8598  2.4591  1.9668  0.9757  1.0329

 Free energy of the ion-electron system (eV)
  ---------------------------------------------------
  alpha Z        PSCENC =         3.75387374
  Ewald energy   TEWEN  =       817.44091337
  -Hartree energ DENC   =     -1067.54288894
  -exchange      EXHF   =         0.00000000
  -V(xc)+E(xc)   XCENC  =        28.22808443
  PAW double counting   =       127.52403492     -130.05752074
  entropy T*S    EENTRO =        -0.00027229
  eigenvalues    EBANDS =       -91.89647670
  atomic energy  EATOM  =       294.29778662
  Solvation  Ediel_sol  =         0.00000000
  ---------------------------------------------------
  free energy    TOTEN  =       -18.25246559 eV

  energy without entropy =      -18.25219330  energy(sigma->0) =      -18.25232944


--------------------------------------------------------------------------------------------------------




--------------------------------------- Iteration      1(  12)  ---------------------------------------


    POTLOK:  cpu time    0.0090: real time    0.0093
    SETDIJ:  cpu time    0.0010: real time    0.0013
     EDDAV:  cpu time    3.8274: real time    3.8318
       DOS:  cpu time    0.0050: real time    0.0050
    CHARGE:  cpu time    0.0140: real time    0.0136
    MIXING:  cpu time    0.0000: real time    0.0005
    --------------------------------------------
      LOOP:  cpu time    3.8564: real time    3.8616

 eigenvalue-minimisations  : 20320
 total energy-change (2. order) :-0.6071487E-03  (-0.3235040E-05)
 number of electron       8.0000000 magnetization 
 augmentation part        0.1787484 magnetization 

 Broyden mixing:
  rms(total) = 0.10143E-02    rms(broyden)= 0.10141E-02
  rms(prec ) = 0.18911E-02
  weight for this iteration     100.00

 eigenvalues of (default mixing * dielectric matrix)
  average eigenvalue GAMMA=   2.5452
  5.9991  3.4070  2.5950  1.0163  0.9473  2.0309  1.8205

 Free energy of the ion-electron system (eV)
  ---------------------------------------------------
  alpha Z        PSCENC =         3.75387374
  Ewald energy   TEWEN  =       817.44091337
  -Hartree energ DENC   =     -1067.97574056
  -exchange      EXHF   =         0.00000000
  -V(xc)+E(xc)   XCENC  =        28.22801936
  PAW double counting   =       127.66190369     -130.19803071
  entropy T*S    EENTRO =        -0.00027018
  eigenvalues    EBANDS =       -91.46152807
  atomic energy  EATOM  =       294.29778662
  Solvation  Ediel_sol  =         0.00000000
  ---------------------------------------------------
  free energy    TOTEN  =       -18.25307273 eV

  energy without entropy =      -18.25280256  energy(sigma->0) =      -18.25293765


--------------------------------------------------------------------------------------------------------




--------------------------------------- Iteration      1(  13)  ---------------------------------------


    POTLOK:  cpu time    0.0090: real time    0.0102
    SETDIJ:  cpu time    0.0020: real time    0.0013
     EDDAV:  cpu time    3.8674: real time    3.8706
       DOS:  cpu time    0.0040: real time    0.0050
    CHARGE:  cpu time    0.0140: real time    0.0136
    MIXING:  cpu time    0.0010: real time    0.0005
    --------------------------------------------
      LOOP:  cpu time    3.8974: real time    3.9012

 eigenvalue-minimisations  : 20576
 total energy-change (2. order) :-0.5411051E-03  (-0.3059811E-05)
 number of electron       8.0000000 magnetization 
 augmentation part        0.1787855 magnetization 

 Broyden mixing:
  rms(total) = 0.46977E-03    rms(broyden)= 0.46973E-03
  rms(prec ) = 0.93506E-03
  weight for this iteration     100.00

 eigenvalues of (default mixing * dielectric matrix)
  average eigenvalue GAMMA=   2.5468
  6.4482  4.0064  2.6905  2.2063  1.9864  0.9479  1.0442  1.0442

 Free energy of the ion-electron system (eV)
  ---------------------------------------------------
  alpha Z        PSCENC =         3.75387374
  Ewald energy   TEWEN  =       817.44091337
  -Hartree energ DENC   =     -1067.94677234
  -exchange      EXHF   =         0.00000000
  -V(xc)+E(xc)   XCENC  =        28.22424514
  PAW double counting   =       127.67004662     -130.20519602
  entropy T*S    EENTRO =        -0.00027147
  eigenvalues    EBANDS =       -91.48823950
  atomic energy  EATOM  =       294.29778662
  Solvation  Ediel_sol  =         0.00000000
  ---------------------------------------------------
  free energy    TOTEN  =       -18.25361384 eV

  energy without entropy =      -18.25334237  energy(sigma->0) =      -18.25347810


--------------------------------------------------------------------------------------------------------




--------------------------------------- Iteration      1(  14)  ---------------------------------------


    POTLOK:  cpu time    0.0090: real time    0.0090
    SETDIJ:  cpu time    0.0010: real time    0.0013
     EDDAV:  cpu time    3.9624: real time    3.9650
       DOS:  cpu time    0.0040: real time    0.0046
    CHARGE:  cpu time    0.0140: real time    0.0137
    MIXING:  cpu time    0.0010: real time    0.0005
    --------------------------------------------
      LOOP:  cpu time    3.9914: real time    3.9942

 eigenvalue-minimisations  : 21192
 total energy-change (2. order) :-0.3561782E-04  (-0.1833159E-06)
 number of electron       8.0000000 magnetization 
 augmentation part        0.1787734 magnetization 

 Broyden mixing:
  rms(total) = 0.32084E-03    rms(broyden)= 0.32083E-03
  rms(prec ) = 0.56368E-03
  weight for this iteration     100.00

 eigenvalues of (default mixing * dielectric matrix)
  average eigenvalue GAMMA=   2.8302
  7.6968  5.0753  3.0473  2.6089  2.0461  2.0194  1.0065  1.0065  0.9650

 Free energy of the ion-electron system (eV)
  ---------------------------------------------------
  alpha Z        PSCENC =         3.75387374
  Ewald energy   TEWEN  =       817.44091337
  -Hartree energ DENC   =     -1068.07838840
  -exchange      EXHF   =         0.00000000
  -V(xc)+E(xc)   XCENC  =        28.22578009
  PAW double counting   =       127.64548320     -130.18040318
  entropy T*S    EENTRO =        -0.00027203
  eigenvalues    EBANDS =       -91.35842287
  atomic energy  EATOM  =       294.29778662
  Solvation  Ediel_sol  =         0.00000000
  ---------------------------------------------------
  free energy    TOTEN  =       -18.25364946 eV

  energy without entropy =      -18.25337743  energy(sigma->0) =      -18.25351344


--------------------------------------------------------------------------------------------------------




--------------------------------------- Iteration      1(  15)  ---------------------------------------


    POTLOK:  cpu time    0.0090: real time    0.0090
    SETDIJ:  cpu time    0.0010: real time    0.0013
     EDDAV:  cpu time    3.9624: real time    3.9652
       DOS:  cpu time    0.0050: real time    0.0049
    CHARGE:  cpu time    0.0130: real time    0.0136
    MIXING:  cpu time    0.0010: real time    0.0006
    --------------------------------------------
      LOOP:  cpu time    3.9914: real time    3.9946

 eigenvalue-minimisations  : 21200
 total energy-change (2. order) :-0.9700832E-04  (-0.3964442E-06)
 number of electron       8.0000000 magnetization 
 augmentation part        0.1787652 magnetization 

 Broyden mixing:
  rms(total) = 0.13303E-03    rms(broyden)= 0.13300E-03
  rms(prec ) = 0.17497E-03
  weight for this iteration     100.00

 eigenvalues of (default mixing * dielectric matrix)
  average eigenvalue GAMMA=   2.9318
  8.2081  5.9390  3.1880  2.6400  2.2252  2.2252  1.9007  0.9688  1.0117  1.0117

 Free energy of the ion-electron system (eV)
  ---------------------------------------------------
  alpha Z        PSCENC =         3.75387374
  Ewald energy   TEWEN  =       817.44091337
  -Hartree energ DENC   =     -1068.14717344
  -exchange      EXHF   =         0.00000000
  -V(xc)+E(xc)   XCENC  =        28.22645206
  PAW double counting   =       127.61651377     -130.15151449
  entropy T*S    EENTRO =        -0.00027125
  eigenvalues    EBANDS =       -91.29032683
  atomic energy  EATOM  =       294.29778662
  Solvation  Ediel_sol  =         0.00000000
  ---------------------------------------------------
  free energy    TOTEN  =       -18.25374647 eV

  energy without entropy =      -18.25347521  energy(sigma->0) =      -18.25361084


--------------------------------------------------------------------------------------------------------




--------------------------------------- Iteration      1(  16)  ---------------------------------------


    POTLOK:  cpu time    0.0100: real time    0.0136
    SETDIJ:  cpu time    0.0020: real time    0.0013
     EDDAV:  cpu time    3.9784: real time    3.9819
       DOS:  cpu time    0.0050: real time    0.0050
    CHARGE:  cpu time    0.0130: real time    0.0136
    MIXING:  cpu time    0.0010: real time    0.0006
    --------------------------------------------
      LOOP:  cpu time    4.0094: real time    4.0160

 eigenvalue-minimisations  : 21496
 total energy-change (2. order) :-0.1510541E-04  (-0.9254726E-08)
 number of electron       8.0000000 magnetization 
 augmentation part        0.1787668 magnetization 

 Broyden mixing:
  rms(total) = 0.48573E-04    rms(broyden)= 0.48572E-04
  rms(prec ) = 0.69360E-04
  weight for this iteration     100.00

 eigenvalues of (default mixing * dielectric matrix)
  average eigenvalue GAMMA=   2.9553
  9.3439  6.0418  3.8622  2.7697  2.5180  1.9943  1.9943  1.0302  1.0302  0.9552
  0.9687

 Free energy of the ion-electron system (eV)
  ---------------------------------------------------
  alpha Z        PSCENC =         3.75387374
  Ewald energy   TEWEN  =       817.44091337
  -Hartree energ DENC   =     -1068.13785023
  -exchange      EXHF   =         0.00000000
  -V(xc)+E(xc)   XCENC  =        28.22617509
  PAW double counting   =       127.62374108     -130.15879147
  entropy T*S    EENTRO =        -0.00027140
  eigenvalues    EBANDS =       -91.29933837
  atomic energy  EATOM  =       294.29778662
  Solvation  Ediel_sol  =         0.00000000
  ---------------------------------------------------
  free energy    TOTEN  =       -18.25376157 eV

  energy without entropy =      -18.25349017  energy(sigma->0) =      -18.25362587


--------------------------------------------------------------------------------------------------------




--------------------------------------- Iteration      1(  17)  ---------------------------------------


    POTLOK:  cpu time    0.0090: real time    0.0093
    SETDIJ:  cpu time    0.0020: real time    0.0013
     EDDAV:  cpu time    3.9524: real time    3.9553
       DOS:  cpu time    0.0050: real time    0.0050
    CHARGE:  cpu time    0.0130: real time    0.0136
    MIXING:  cpu time    0.0010: real time    0.0006
    --------------------------------------------
      LOOP:  cpu time    3.9824: real time    3.9850

 eigenvalue-minimisations  : 21256
 total energy-change (2. order) :-0.3155252E-05  (-0.1015236E-08)
 number of electron       8.0000000 magnetization 
 augmentation part        0.1787642 magnetization 

 Broyden mixing:
  rms(total) = 0.17525E-04    rms(broyden)= 0.17514E-04
  rms(prec ) = 0.20775E-04
  weight for this iteration     100.00

 eigenvalues of (default mixing * dielectric matrix)
  average eigenvalue GAMMA=   2.9973
  9.6308  6.1313  4.0285  3.0543  2.6481  2.4743  2.0198  1.9744  0.9690  1.0022
  1.0172  1.0172

 Free energy of the ion-electron system (eV)
  ---------------------------------------------------
  alpha Z        PSCENC =         3.75387374
  Ewald energy   TEWEN  =       817.44091337
  -Hartree energ DENC   =     -1068.14946093
  -exchange      EXHF   =         0.00000000
  -V(xc)+E(xc)   XCENC  =        28.22635466
  PAW double counting   =       127.62795888     -130.16306050
  entropy T*S    EENTRO =        -0.00027143
  eigenvalues    EBANDS =       -91.28785913
  atomic energy  EATOM  =       294.29778662
  Solvation  Ediel_sol  =         0.00000000
  ---------------------------------------------------
  free energy    TOTEN  =       -18.25376473 eV

  energy without entropy =      -18.25349329  energy(sigma->0) =      -18.25362901


--------------------------------------------------------------------------------------------------------




--------------------------------------- Iteration      1(  18)  ---------------------------------------


    POTLOK:  cpu time    0.0090: real time    0.0094
    SETDIJ:  cpu time    0.0020: real time    0.0013
     EDDAV:  cpu time    3.8684: real time    3.8723
       DOS:  cpu time    0.0050: real time    0.0048
    --------------------------------------------
      LOOP:  cpu time    3.8844: real time    3.8877

 eigenvalue-minimisations  : 20664
 total energy-change (2. order) :-0.6424568E-06  (-0.6260873E-09)
 number of electron       8.0000000 magnetization 
 augmentation part        0.1787642 magnetization 

 Free energy of the ion-electron system (eV)
  ---------------------------------------------------
  alpha Z        PSCENC =         3.75387374
  Ewald energy   TEWEN  =       817.44091337
  -Hartree energ DENC   =     -1068.14839556
  -exchange      EXHF   =         0.00000000
  -V(xc)+E(xc)   XCENC  =        28.22632377
  PAW double counting   =       127.62811007     -130.16319351
  entropy T*S    EENTRO =        -0.00027142
  eigenvalues    EBANDS =       -91.28891245
  atomic energy  EATOM  =       294.29778662
  Solvation  Ediel_sol  =         0.00000000
  ---------------------------------------------------
  free energy    TOTEN  =       -18.25376537 eV

  energy without entropy =      -18.25349395  energy(sigma->0) =      -18.25362966


--------------------------------------------------------------------------------------------------------




 average (electrostatic) potential at core
  the test charge radii are     0.6991
  (the norm of the test charge is              1.0000)
       1 -58.2057       2 -58.2057
 
 
 
 E-fermi :  -2.6016     XC(G=0):  -2.7291     alpha+bet : -2.3125


 k-point     1 :       0.0312    0.0312    0.0000
  band No.  band energies     occupation 
      1     -21.3649      2.00000
      2      -9.5756      2.00000
      3      -5.9800      2.00000
      4      -5.7695      2.00000
      5       0.9904      0.00000
      6       1.8558      0.00000
      7       2.3805      0.00000
      8       4.1068      0.00000
      9       4.6340      0.00000
     10       4.8491      0.00000
     11       5.5484      0.00000
     12       7.5051      0.00000
     13       7.7307      0.00000
     14       8.5529      0.00000
     15       8.7897      0.00000
     16      12.6700      0.00000
     17      14.1200      0.00000
     18      18.7188      0.00000
     19      18.9920      0.00000
     20      20.7909      0.00000
     21      23.2057      0.00000
     22      23.4731      0.00000
     23      25.8660      0.00000
     24      27.4916      0.00000
     25      28.0015      0.00000
     26      28.3716      0.00000
     27      28.7299      0.00000
     28      28.8696      0.00000
     29      29.7153      0.00000
     30      29.7370      0.00000
     31      29.7937      0.00000
     32      29.8352      0.00000
     33      30.4971      0.00000
     34      31.7230      0.00000
     35      31.9320      0.00000
     36      31.9999      0.00000
     37      32.2084      0.00000
     38      32.9637      0.00000
     39      33.2425      0.00000
     40      33.5915      0.00000
     41      34.1082      0.00000
     42      34.2393      0.00000
     43      34.8723      0.00000
     44      35.0974      0.00000
     45      35.1398      0.00000
     46      35.1718      0.00000
     47      35.2036      0.00000
     48      35.2116      0.00000
     49      35.2345      0.00000
     50      35.5866      0.00000
     51      35.7677      0.00000
     52      35.8598      0.00000
     53      36.0336      0.00000
     54      36.7683      0.00000
     55      36.9409      0.00000
     56      37.1099      0.00000
     57      37.2381      0.00000
     58      37.4949      0.00000
     59      37.5599      0.00000
     60      37.6925      0.00000
     61      37.6936      0.00000
     62      38.1608      0.00000
     63      38.2047      0.00000
     64      39.6936      0.00000
     65      39.9024      0.00000
     66      40.6372      0.00000
     67      40.8934      0.00000
     68      40.9050      0.00000
     69      41.1977      0.00000
     70      41.2218      0.00000
     71      41.5948      0.00000
     72      41.6449      0.00000
     73      41.7535      0.00000
     74      41.7771      0.00000
     75      42.3816      0.00000
     76      43.5736      0.00000
     77      44.8257      0.00000
     78      44.9708      0.00000
     79      45.4648      0.00000
     80      46.2888      0.00000
     81      46.4534      0.00000
     82      46.6131      0.00000
     83      46.9293      0.00000
     84      47.5891      0.00000
     85      47.6804      0.00000
     86      47.7004      0.00000
     87      47.9047      0.00000
     88      48.2580      0.00000
     89      48.8968      0.00000
     90      49.1031      0.00000
     91      49.1699      0.00000
     92      51.5277      0.00000
     93      52.9084      0.00000
     94      53.0619      0.00000
     95      53.1422      0.00000
     96      53.4820      0.00000
     97      53.6589      0.00000
     98      54.3949      0.00000
     99      54.5470      0.00000
    100      55.1538      0.00000
    101      55.6303      0.00000
    102      55.9652      0.00000
    103      56.4702      0.00000
    104      58.3571      0.00000
    105      59.3830      0.00000
    106      59.8291      0.00000
    107      60.7525      0.00000
    108      60.7924      0.00000
    109      61.1929      0.00000
    110      61.6336      0.00000
    111      62.0894      0.00000
    112      62.0903      0.00000
    113      62.2324      0.00000
    114      62.7508      0.00000
    115      64.1075      0.00000
    116      64.7592      0.00000
    117      64.9502      0.00000
    118      65.8254      0.00000
    119      67.7015      0.00000
    120      68.5339      0.00000
    121      68.5505      0.00000
    122      69.6941      0.00000
    123      70.3902      0.00000
    124      70.4730      0.00000
    125      70.8723      0.00000
    126      71.0037      0.00000
    127      71.1781      0.00000
    128      72.6473      0.00000

 k-point     2 :       0.0937    0.0313    0.0000
  band No.  band energies     occupation 
      1     -21.1571      2.00000
      2      -9.3336      2.00000
      3      -6.7952      2.00000
      4      -6.1938      2.00000
      5       1.2712      0.00000
      6       2.1389      0.00000
      7       2.6672      0.00000
      8       4.3879      0.00000
      9       4.9257      0.00000
     10       5.1676      0.00000
     11       6.4500      0.00000
     12       6.8306      0.00000
     13       8.0034      0.00000
     14       8.7750      0.00000
     15       9.0732      0.00000
     16      12.9131      0.00000
     17      14.3961      0.00000
     18      18.7234      0.00000
     19      19.4334      0.00000
     20      21.0775      0.00000
     21      21.3933      0.00000
     22      22.8640      0.00000
     23      24.9184      0.00000
     24      25.8896      0.00000
     25      26.3099      0.00000
     26      26.3988      0.00000
     27      26.8909      0.00000
     28      27.7041      0.00000
     29      28.3445      0.00000
     30      28.4612      0.00000
     31      28.7045      0.00000
     32      28.9275      0.00000
     33      28.9841      0.00000
     34      30.3157      0.00000
     35      30.5931      0.00000
     36      30.9229      0.00000
     37      31.8766      0.00000
     38      32.2876      0.00000
     39      32.5007      0.00000
     40      32.7585      0.00000
     41      33.3974      0.00000
     42      33.4374      0.00000
     43      34.3622      0.00000
     44      34.4395      0.00000
     45      35.0190      0.00000
     46      35.5590      0.00000
     47      35.6851      0.00000
     48      35.9194      0.00000
     49      36.1673      0.00000
     50      36.7756      0.00000
     51      37.1777      0.00000
     52      37.3124      0.00000
     53      37.4521      0.00000
     54      37.4786      0.00000
     55      37.6429      0.00000
     56      37.9362      0.00000
     57      38.1828      0.00000
     58      38.8895      0.00000
     59      38.9387      0.00000
     60      39.1723      0.00000
     61      39.2798      0.00000
     62      39.4361      0.00000
     63      39.5889      0.00000
     64      39.7222      0.00000
     65      39.9340      0.00000
     66      40.1698      0.00000
     67      40.2805      0.00000
     68      40.9450      0.00000
     69      41.4811      0.00000
     70      41.9779      0.00000
     71      42.6916      0.00000
     72      42.8234      0.00000
     73      43.6847      0.00000
     74      43.9150      0.00000
     75      44.0648      0.00000
     76      44.2207      0.00000
     77      44.4440      0.00000
     78      44.7817      0.00000
     79      45.4237      0.00000
     80      45.9544      0.00000
     81      46.1551      0.00000
     82      46.6467      0.00000
     83      46.9778      0.00000
     84      47.1564      0.00000
     85      48.5986      0.00000
     86      48.7657      0.00000
     87      49.0987      0.00000
     88      49.1033      0.00000
     89      49.5411      0.00000
     90      50.6522      0.00000
     91      51.1842      0.00000
     92      51.3459      0.00000
     93      51.9137      0.00000
     94      52.2138      0.00000
     95      52.8781      0.00000
     96      53.8436      0.00000
     97      54.5279      0.00000
     98      54.7304      0.00000
     99      55.6214      0.00000
    100      55.7152      0.00000
    101      56.0023      0.00000
    102      56.8456      0.00000
    103      57.9221      0.00000
    104      58.5566      0.00000
    105      59.1189      0.00000
    106      59.5535      0.00000
    107      60.1848      0.00000
    108      61.2776      0.00000
    109      61.2783      0.00000
    110      61.8234      0.00000
    111      62.5813      0.00000
    112      63.1855      0.00000
    113      63.3665      0.00000
    114      63.4182      0.00000
    115      63.8236      0.00000
    116      64.5377      0.00000
    117      65.2559      0.00000
    118      65.8372      0.00000
    119      67.6881      0.00000
    120      68.0415      0.00000
    121      68.6121      0.00000
    122      69.0467      0.00000
    123      71.1673      0.00000
    124      71.5389      0.00000
    125      72.1232      0.00000
    126      72.1814      0.00000
    127      72.5337      0.00000
    128      72.6649      0.00000

 k-point     3 :       0.1562    0.0313    0.0000
  band No.  band energies     occupation 
      1     -20.7816      2.00000
      2      -8.8985      2.00000
      3      -8.0799      2.00000
      4      -6.7366      2.00000
      5       1.7814      0.00000
      6       2.6506      0.00000
      7       3.1880      0.00000
      8       4.8903      0.00000
      9       5.2121      0.00000
     10       5.6707      0.00000
     11       5.7442      0.00000
     12       7.7322      0.00000
     13       8.4954      0.00000
     14       9.4144      0.00000
     15       9.6020      0.00000
     16      13.3349      0.00000
     17      14.8921      0.00000
     18      18.1743      0.00000
     19      19.8248      0.00000
     20      20.4105      0.00000
     21      21.5497      0.00000
     22      21.7925      0.00000
     23      22.1558      0.00000
     24      23.1746      0.00000
     25      23.2942      0.00000
     26      25.3263      0.00000
     27      25.4598      0.00000
     28      25.9017      0.00000
     29      26.5394      0.00000
     30      26.9808      0.00000
     31      27.1769      0.00000
     32      28.4369      0.00000
     33      29.3518      0.00000
     34      29.4149      0.00000
     35      29.4791      0.00000
     36      29.5032      0.00000
     37      29.9584      0.00000
     38      30.5763      0.00000
     39      31.8454      0.00000
     40      31.9276      0.00000
     41      32.6049      0.00000
     42      33.3075      0.00000
     43      33.4305      0.00000
     44      34.1491      0.00000
     45      34.2886      0.00000
     46      34.3521      0.00000
     47      34.6044      0.00000
     48      35.5760      0.00000
     49      36.3534      0.00000
     50      37.7534      0.00000
     51      37.7683      0.00000
     52      37.7696      0.00000
     53      38.0614      0.00000
     54      38.5202      0.00000
     55      38.5374      0.00000
     56      38.7453      0.00000
     57      39.3901      0.00000
     58      39.5724      0.00000
     59      39.7586      0.00000
     60      40.0503      0.00000
     61      40.1607      0.00000
     62      40.7767      0.00000
     63      41.0843      0.00000
     64      41.3411      0.00000
     65      41.7381      0.00000
     66      42.3032      0.00000
     67      42.3352      0.00000
     68      42.5133      0.00000
     69      43.0140      0.00000
     70      43.1374      0.00000
     71      43.5897      0.00000
     72      43.7834      0.00000
     73      44.4674      0.00000
     74      44.6819      0.00000
     75      45.1914      0.00000
     76      45.4120      0.00000
     77      45.7750      0.00000
     78      45.9112      0.00000
     79      46.1971      0.00000
     80      46.4626      0.00000
     81      47.3184      0.00000
     82      47.5624      0.00000
     83      48.2807      0.00000
     84      49.0352      0.00000
     85      49.3929      0.00000
     86      49.7566      0.00000
     87      50.0080      0.00000
     88      50.2032      0.00000
     89      50.4018      0.00000
     90      51.1905      0.00000
     91      51.4920      0.00000
     92      51.5525      0.00000
     93      51.9757      0.00000
     94      52.8464      0.00000
     95      53.5041      0.00000
     96      54.8469      0.00000
     97      55.2597      0.00000
     98      55.9887      0.00000
     99      57.0351      0.00000
    100      57.2940      0.00000
    101      57.8474      0.00000
    102      58.0002      0.00000
    103      58.3534      0.00000
    104      58.4119      0.00000
    105      58.8817      0.00000
    106      59.7642      0.00000
    107      60.4407      0.00000
    108      60.8943      0.00000
    109      61.6706      0.00000
    110      61.9179      0.00000
    111      62.2209      0.00000
    112      62.8447      0.00000
    113      64.3991      0.00000
    114      64.9699      0.00000
    115      65.2659      0.00000
    116      65.9411      0.00000
[...]
     12      11.6915      0.00000
     13      11.8304      0.00000
     14      13.0635      0.00000
     15      13.7136      0.00000
     16      13.8781      0.00000
     17      14.6368      0.00000
     18      14.7681      0.00000
     19      15.2824      0.00000
     20      16.3303      0.00000
     21      17.2561      0.00000
     22      17.4477      0.00000
     23      18.3816      0.00000
     24      18.8629      0.00000
     25      20.3392      0.00000
     26      20.6321      0.00000
     27      22.5202      0.00000
     28      22.7432      0.00000
     29      23.6113      0.00000
     30      23.6394      0.00000
     31      24.0325      0.00000
     32      24.4438      0.00000
     33      24.4445      0.00000
     34      24.6092      0.00000
     35      25.4812      0.00000
     36      25.9017      0.00000
     37      26.5705      0.00000
     38      26.7230      0.00000
     39      26.7614      0.00000
     40      26.8072      0.00000
     41      27.6288      0.00000
     42      29.3935      0.00000
     43      30.1672      0.00000
     44      30.7505      0.00000
     45      30.7868      0.00000
     46      31.0759      0.00000
     47      32.6015      0.00000
     48      33.0225      0.00000
     49      33.3669      0.00000
     50      34.3358      0.00000
     51      34.6258      0.00000
     52      36.0699      0.00000
     53      36.2422      0.00000
     54      36.4642      0.00000
     55      37.8247      0.00000
     56      40.3266      0.00000
     57      40.4123      0.00000
     58      40.8204      0.00000
     59      42.1129      0.00000
     60      42.4506      0.00000
     61      42.5783      0.00000
     62      43.5155      0.00000
     63      44.0184      0.00000
     64      44.3738      0.00000
     65      44.5448      0.00000
     66      47.8525      0.00000
     67      48.0827      0.00000
     68      49.0066      0.00000
     69      49.3011      0.00000
     70      49.6903      0.00000
     71      50.2353      0.00000
     72      50.6379      0.00000
     73      50.8165      0.00000
     74      50.9202      0.00000
     75      51.1234      0.00000
     76      51.2452      0.00000
     77      51.5044      0.00000
     78      52.3610      0.00000
     79      52.6733      0.00000
     80      53.3691      0.00000
     81      53.3796      0.00000
     82      53.5765      0.00000
     83      53.9898      0.00000
     84      54.1111      0.00000
     85      54.7999      0.00000
     86      55.9679      0.00000
     87      56.0395      0.00000
     88      56.5050      0.00000
     89      57.5574      0.00000
     90      57.7988      0.00000
     91      58.1398      0.00000
     92      58.2628      0.00000
     93      59.2409      0.00000
     94      59.4903      0.00000
     95      59.9844      0.00000
     96      60.0150      0.00000
     97      60.3700      0.00000
     98      60.4818      0.00000
     99      61.8326      0.00000
    100      62.0935      0.00000
    101      62.3030      0.00000
    102      62.8945      0.00000
    103      63.1636      0.00000
    104      63.2204      0.00000
    105      63.3044      0.00000
    106      63.5662      0.00000
    107      63.6823      0.00000
    108      63.8329      0.00000
    109      64.5478      0.00000
    110      65.2673      0.00000
    111      65.6856      0.00000
    112      65.7727      0.00000
    113      65.9185      0.00000
    114      65.9806      0.00000
    115      66.0793      0.00000
    116      66.6737      0.00000
    117      66.8220      0.00000
    118      67.3642      0.00000
    119      67.6126      0.00000
    120      68.7193      0.00000
    121      68.7815      0.00000
    122      69.1977      0.00000
    123      69.4210      0.00000
    124      69.6206      0.00000
    125      69.7890      0.00000
    126      69.7956      0.00000
    127      69.8006      0.00000
    128      69.9271      0.00000

 k-point    71 :       0.4687    0.4687    0.0000
  band No.  band energies     occupation 
      1     -15.9554      2.00000
      2     -15.3192      2.00000
      3      -9.6211      2.00000
      4      -4.2774      2.00000
      5      -1.0715      0.00000
      6       2.9578      0.00000
      7       8.8500      0.00000
      8       8.9326      0.00000
      9       9.2413      0.00000
     10       9.9293      0.00000
     11      10.5377      0.00000
     12      10.5476      0.00000
     13      11.3757      0.00000
     14      12.1926      0.00000
     15      12.7390      0.00000
     16      12.7629      0.00000
     17      13.7266      0.00000
     18      15.5763      0.00000
     19      15.7513      0.00000
     20      16.3162      0.00000
     21      16.6413      0.00000
     22      16.6504      0.00000
     23      18.4225      0.00000
     24      18.9668      0.00000
     25      19.8974      0.00000
     26      20.4660      0.00000
     27      20.6942      0.00000
     28      21.3373      0.00000
     29      21.5623      0.00000
     30      22.5544      0.00000
     31      22.6743      0.00000
     32      23.7035      0.00000
     33      23.7074      0.00000
     34      24.2695      0.00000
     35      25.4360      0.00000
     36      26.3623      0.00000
     37      26.8933      0.00000
     38      26.9959      0.00000
     39      27.3060      0.00000
     40      27.7530      0.00000
     41      28.7297      0.00000
     42      29.0660      0.00000
     43      29.2734      0.00000
     44      29.5555      0.00000
     45      29.8611      0.00000
     46      31.8829      0.00000
     47      31.9730      0.00000
     48      33.2305      0.00000
     49      33.5154      0.00000
     50      33.9946      0.00000
     51      34.1461      0.00000
     52      36.2353      0.00000
     53      36.8868      0.00000
     54      37.4864      0.00000
     55      38.1546      0.00000
     56      38.7474      0.00000
     57      39.2295      0.00000
     58      39.9063      0.00000
     59      41.3743      0.00000
     60      43.1983      0.00000
     61      45.0434      0.00000
     62      45.3778      0.00000
     63      45.8345      0.00000
     64      46.1517      0.00000
     65      46.3278      0.00000
     66      46.4651      0.00000
     67      46.6088      0.00000
     68      47.5657      0.00000
     69      48.4949      0.00000
     70      50.5077      0.00000
     71      50.9237      0.00000
     72      51.5602      0.00000
     73      52.2372      0.00000
     74      52.6579      0.00000
     75      53.5902      0.00000
     76      53.8074      0.00000
     77      54.0684      0.00000
     78      54.1433      0.00000
     79      54.3501      0.00000
     80      54.4538      0.00000
     81      54.7887      0.00000
     82      55.1164      0.00000
     83      55.3285      0.00000
     84      56.3771      0.00000
     85      56.4729      0.00000
     86      56.6921      0.00000
     87      56.7092      0.00000
     88      57.0935      0.00000
     89      57.3493      0.00000
     90      57.6705      0.00000
     91      57.7095      0.00000
     92      58.2522      0.00000
     93      59.1285      0.00000
     94      59.6231      0.00000
     95      59.6250      0.00000
     96      59.8773      0.00000
     97      60.2018      0.00000
     98      60.3252      0.00000
     99      60.5159      0.00000
    100      60.5359      0.00000
    101      61.0918      0.00000
    102      61.3859      0.00000
    103      61.4180      0.00000
    104      61.9578      0.00000
    105      62.4389      0.00000
    106      62.5406      0.00000
    107      62.7964      0.00000
    108      64.3489      0.00000
    109      64.6554      0.00000
    110      65.2082      0.00000
    111      65.8854      0.00000
    112      65.9354      0.00000
    113      66.0615      0.00000
    114      66.2811      0.00000
    115      66.3595      0.00000
    116      66.4652      0.00000
    117      66.5596      0.00000
    118      66.6341      0.00000
    119      67.7096      0.00000
    120      67.8262      0.00000
    121      68.4066      0.00000
    122      68.8683      0.00000
    123      69.1223      0.00000
    124      69.3418      0.00000
    125      70.9645      0.00000
    126      71.2095      0.00000
    127      71.2606      0.00000
    128      71.4328      0.00000

 k-point    72 :      -0.4687    0.4687    0.0000
  band No.  band energies     occupation 
      1     -16.4247      2.00000
      2     -14.9143      2.00000
      3      -9.3313      2.00000
      4      -4.5125      2.00000
      5      -0.8380      0.00000
      6       2.6001      0.00000
      7       7.8881      0.00000
      8       8.6657      0.00000
      9       9.4790      0.00000
     10       9.7851      0.00000
     11      10.3394      0.00000
     12      11.0350      0.00000
     13      11.4988      0.00000
     14      11.7664      0.00000
     15      12.5660      0.00000
     16      13.6288      0.00000
     17      13.9215      0.00000
     18      15.4484      0.00000
     19      15.6754      0.00000
     20      15.9419      0.00000
     21      16.8014      0.00000
     22      17.0053      0.00000
     23      17.8032      0.00000
     24      18.9481      0.00000
     25      20.2992      0.00000
     26      20.3665      0.00000
     27      22.2238      0.00000
     28      22.4753      0.00000
     29      22.5845      0.00000
     30      23.0482      0.00000
     31      23.8847      0.00000
     32      24.1812      0.00000
     33      24.1876      0.00000
     34      24.2485      0.00000
     35      24.6940      0.00000
     36      25.7203      0.00000
     37      26.2818      0.00000
     38      26.5516      0.00000
     39      26.6784      0.00000
     40      26.8430      0.00000
     41      28.4651      0.00000
     42      28.6172      0.00000
     43      29.7802      0.00000
     44      30.2128      0.00000
     45      30.3393      0.00000
     46      30.4968      0.00000
     47      31.0128      0.00000
     48      32.4759      0.00000
     49      33.6707      0.00000
     50      34.2619      0.00000
     51      35.8223      0.00000
     52      35.8319      0.00000
     53      35.8905      0.00000
     54      36.3746      0.00000
     55      37.3399      0.00000
     56      38.2630      0.00000
     57      40.2890      0.00000
     58      41.3731      0.00000
     59      42.1979      0.00000
     60      42.4279      0.00000
     61      42.6230      0.00000
     62      44.8184      0.00000
     63      45.4619      0.00000
     64      46.1265      0.00000
     65      46.6051      0.00000
     66      47.3100      0.00000
     67      47.5342      0.00000
     68      47.9793      0.00000
     69      49.8706      0.00000
     70      50.0729      0.00000
     71      50.3575      0.00000
     72      51.0157      0.00000
     73      51.2733      0.00000
     74      52.3769      0.00000
     75      53.5072      0.00000
     76      54.1299      0.00000
     77      54.4106      0.00000
     78      54.5681      0.00000
     79      54.8476      0.00000
     80      55.0738      0.00000
     81      55.1555      0.00000
     82      55.3510      0.00000
     83      55.5994      0.00000
     84      55.9013      0.00000
     85      56.9380      0.00000
     86      57.3008      0.00000
     87      57.4267      0.00000
     88      57.4877      0.00000
     89      57.9218      0.00000
     90      58.2030      0.00000
     91      58.3803      0.00000
     92      58.3900      0.00000
     93      58.7737      0.00000
     94      59.1343      0.00000
     95      59.2305      0.00000
     96      59.3841      0.00000
     97      59.3915      0.00000
     98      59.7311      0.00000
     99      60.5533      0.00000
    100      60.6604      0.00000
    101      61.1520      0.00000
    102      61.3608      0.00000
    103      61.3681      0.00000
    104      61.6146      0.00000
    105      61.6336      0.00000
    106      61.9490      0.00000
    107      62.0388      0.00000
    108      63.9067      0.00000
    109      64.4650      0.00000
    110      65.0646      0.00000
    111      65.4964      0.00000
    112      65.5883      0.00000
    113      65.6852      0.00000
    114      66.0509      0.00000
    115      66.1798      0.00000
    116      66.7327      0.00000
    117      67.0482      0.00000
    118      67.0841      0.00000
    119      67.2421      0.00000
    120      67.6285      0.00000
    121      68.9284      0.00000
    122      69.2987      0.00000
    123      69.6984      0.00000
    124      70.1294      0.00000
    125      70.7142      0.00000
    126      70.8455      0.00000
    127      70.9360      0.00000
    128      71.0460      0.00000


--------------------------------------------------------------------------------------------------------


 soft charge-density along one line, spin component           1
         0         1         2         3         4         5         6         7         8         9
 total charge-density along one line
 
 pseudopotential strength for first ion, spin component:           1
 10.222   0.019   0.000  -0.000  -0.000  -0.000   0.000   0.000
  0.019  -0.002   0.000   0.000   0.000  -0.000   0.000   0.000
  0.000   0.000  -4.347  -0.000  -0.000  -0.014  -0.000  -0.000
 -0.000   0.000  -0.000  -4.343   0.000  -0.000  -0.012   0.000
 -0.000   0.000  -0.000   0.000  -4.347  -0.000   0.000  -0.014
 -0.000  -0.000  -0.014  -0.000  -0.000  -0.772  -0.000  -0.000
  0.000   0.000  -0.000  -0.012   0.000  -0.000  -0.772   0.000
  0.000   0.000  -0.000   0.000  -0.014  -0.000   0.000  -0.772
 total augmentation occupancy for first ion, spin component:           1
  1.448  -1.009   0.025   0.000   0.000   0.011   0.000   0.000
 -1.009   0.889  -0.044   0.000  -0.000  -0.015   0.000   0.000
  0.025  -0.044   1.195   0.000   0.000   0.205   0.000  -0.000
  0.000   0.000   0.000   0.923   0.000  -0.000   0.092  -0.000
  0.000  -0.000   0.000   0.000   1.124  -0.000   0.000   0.200
  0.011  -0.015   0.205  -0.000  -0.000   0.041   0.000   0.000
  0.000   0.000   0.000   0.092   0.000   0.000   0.010   0.000
  0.000   0.000  -0.000  -0.000   0.200   0.000   0.000   0.040


------------------------ aborting loop because EDIFF is reached ----------------------------------------


    CHARGE:  cpu time    0.0140: real time    0.0136
    FORLOC:  cpu time    0.0000: real time    0.0004
    FORNL :  cpu time    0.1270: real time    0.1267
    STRESS:  cpu time    0.2340: real time    0.2340
    FORHAR:  cpu time    0.0020: real time    0.0024
    MIXING:  cpu time    0.0010: real time    0.0003
    OFIELD:  cpu time    0.0000: real time    0.0000

  FORCE on cell =-STRESS in cart. coord.  units (eV):
  Direction    XX          YY          ZZ          XY          YZ          ZX
  --------------------------------------------------------------------------------------
  Alpha Z     3.75387     3.75387     3.75387
  Ewald    1075.60924  1080.87917 -1339.12100     0.00000    -0.00000    -0.00000
  Hartree  1055.42851  1056.67150 -1044.01716     0.00000     0.00000    -0.00000
  E(xc)     -28.63844   -28.66047   -29.79292     0.00000    -0.00000     0.00000
  Local   -2219.29932 -2224.88283  2280.72806    -0.00000    -0.00000     0.00000
  n-local    -5.88666    -6.64387    -5.99708     0.05952     0.00000     0.00000
  augment    -0.68557    -0.68937    -0.64835    -0.00000     0.00000    -0.00000
  Kinetic   113.56588   118.49621   135.08296    -1.61627     0.00000    -0.00000
  Fock        0.00000     0.00000     0.00000     0.00000     0.00000     0.00000
  -------------------------------------------------------------------------------------
  Total      -6.15249    -1.07578    -0.01161     0.00000     0.00000     0.00000
  in kB    -113.53479   -19.85181    -0.21424     0.00000     0.00000     0.00000
  external pressure =      -44.53 kB  Pullay stress =        0.00 kB


 VOLUME and BASIS-vectors are now :
 -----------------------------------------------------------------------------
  energy-cutoff  :      520.00
  volume of cell :       86.82
      direct lattice vectors                 reciprocal lattice vectors
     1.308259326 -2.137714457  0.000000000     0.382187224 -0.233894662  0.000000000
     1.308259326  2.137714457  0.000000000     0.382187224  0.233894662  0.000000000
     0.000000000  0.000000000 15.522393743     0.000000000  0.000000000  0.064423053

  length of vectors
     2.506265262  2.506265262 15.522393743     0.448077880  0.448077880  0.064423053


 FORCES acting on ions
    electron-ion (+dipol)            ewald-force                    non-local-force                 convergence-correction
 -----------------------------------------------------------------------------------------------
   0.147E-12 0.111E+02 0.556E-12   0.298E-11 -.110E+02 -.296E-20   -.111E-15 -.692E-01 0.000E+00   -.427E-13 0.748E-02 0.580E-12
   -.190E-11 -.111E+02 0.808E-12   -.298E-11 0.110E+02 0.296E-20   -.555E-16 0.692E-01 0.000E+00   0.434E-13 -.748E-02 0.533E-12
 -----------------------------------------------------------------------------------------------
   -.175E-11 0.280E-11 0.136E-11   -.178E-14 0.355E-14 0.000E+00   -.167E-15 0.000E+00 0.000E+00   0.609E-15 0.788E-14 0.111E-11
 
 
 POSITION                                       TOTAL-FORCE (eV/Angst)
 -----------------------------------------------------------------------------------
      1.30826     -0.71575      7.76120         0.000000     -0.002177      0.000000
      1.30826      0.71575      7.76120         0.000000      0.002177      0.000000
 -----------------------------------------------------------------------------------
    total drift:                               -0.000000      0.000000      0.000000


--------------------------------------------------------------------------------------------------------



  FREE ENERGIE OF THE ION-ELECTRON SYSTEM (eV)
  ---------------------------------------------------
  free  energy   TOTEN  =       -18.25464991 eV

  energy  without entropy=      -18.25408583  energy(sigma->0) =      -18.25436787
 
 d Force = 0.1843570E-04[ 0.196E-05, 0.349E-04]  d Energy = 0.1789521E-04 0.540E-06
 d Force = 0.1001449E-01[ 0.995E-02, 0.101E-01]  d Ewald  = 0.1001445E-01 0.339E-07


--------------------------------------------------------------------------------------------------------


    POTLOK:  cpu time    0.0100: real time    0.0103


--------------------------------------------------------------------------------------------------------




--------------------------------------------------------------------------------------------------------


  
 reached required accuracy - stopping structural energy minimisation
     LOOP+:  cpu time    8.1328: real time    8.1472
    4ORBIT:  cpu time    0.0000: real time    0.0000

 total amount of memory used by VASP MPI-rank0    47104. kBytes
=======================================================================

   base      :      30000. kBytes
   nonl-proj :       1651. kBytes
   fftplans  :        817. kBytes
   grid      :       1215. kBytes
   one-center:          3. kBytes
   wavefun   :      13418. kBytes
 
  
  
 General timing and accounting informations for this job:
 ========================================================
  
                  Total CPU time used (sec):       98.611
                            User time (sec):       97.829
                          System time (sec):        0.782
                         Elapsed time (sec):       98.746
  
                   Maximum memory used (kb):       78836.
                   Average memory used (kb):           0.
  
                          Minor page faults:        12577
                          Major page faults:            0
                 Voluntary context switches:          343
