<?xml version="1.0" encoding="ISO-8859-1"?>
<modeling>
 <generator>
  <i name="program" type="string">vasp </i>
  <i name="version" type="string">5.4.4.18Apr17-6-g9f103f2a35  </i>
  <i name="subversion" type="string">(build Nov 22 2017 20:28:56) complex            parallel </i>
  <i name="platform" type="string">LinuxIFC </i>
  <i name="date" type="string">2019 10 06 </i>
  <i name="time" type="string">20:00:31 </i>
 </generator>
 <incar>
  <i type="int" name="ISTART">     0</i>
  <i type="string" name="PREC">accurate</i>
  <i type="int" name="IALGO">    48</i>
  <i type="string" name="ALGO"> Normal</i>
  <i type="int" name="NSIM">     4</i>
  <i type="int" name="IBRION">     2</i>
  <i name="EDIFF">      0.00000100</i>
  <i type="int" name="NSW">    50</i>
  <i type="int" name="ISIF">     2</i>
  <i type="int" name="ISYM">     2</i>
  <i name="ENCUT">    520.00000000</i>
  <i type="int" name="NBANDS">   128</i>
  <i name="POTIM">      0.10000000</i>
  <i type="logical" name="LPLANE"> T  </i>
  <i type="int" name="ISMEAR">     0</i>
  <i name="SIGMA">      0.10000000</i>
  <i type="logical" name="LWAVE"> F  </i>
  <i type="logical" name="LCHARG"> F  </i>
  <v type="int" name="KPOINT_BSE">    -1     0     0     0</v>
 </incar>
 <structure name="primitive_cell" >
  <crystal>
   <varray name="basis" >
    <v>       1.30825933      -2.13771446       0.00000000 </v>
    <v>       1.30825933       2.13771446       0.00000000 </v>
    <v>       0.00000000       0.00000000      15.52239374 </v>
   </varray>
   <i name="volume">     86.82248763 </i>
   <varray name="rec_basis" >
    <v>       0.38218722      -0.23389466       0.00000000 </v>
    <v>       0.38218722       0.23389466       0.00000000 </v>
    <v>       0.00000000       0.00000000       0.06442305 </v>
   </varray>
  </crystal>
  <varray name="positions" >
   <v>      -0.33333238       0.33333238      -0.50000000 </v>
   <v>       0.33333238      -0.33333238      -0.50000000 </v>
  </varray>
 </structure>
 <varray name="primitive_index" >
  <v type="int" >        1 </v>
  <v type="int" >        2 </v>
 </varray>
 <kpoints>
  <generation param="Monkhorst-Pack">
   <v type="int" name="divisions">      16       16        1 </v>
   <v name="usershift">      0.00000000       0.00000000       0.00000000 </v>
   <v name="genvec1">      0.06250000      -0.00000000       0.00000000 </v>
   <v name="genvec2">     -0.00000000       0.06250000       0.00000000 </v>
   <v name="genvec3">      0.00000000       0.00000000       1.00000000 </v>
   <v name="shift">      0.50000000       0.50000000       0.00000000 </v>
  </generation>
  <varray name="kpointlist" >
   <v>       0.03125000       0.03125000       0.00000000 </v>
   <v>       0.09375000       0.03125000       0.00000000 </v>
   <v>       0.15625000       0.03125000       0.00000000 </v>
   <v>       0.21875000       0.03125000       0.00000000 </v>
   <v>       0.28125000       0.03125000       0.00000000 </v>
   <v>       0.34375000       0.03125000       0.00000000 </v>
   <v>       0.40625000       0.03125000       0.00000000 </v>
   <v>       0.46875000       0.03125000       0.00000000 </v>
   <v>      -0.46875000       0.03125000       0.00000000 </v>
   <v>      -0.40625000       0.03125000       0.00000000 </v>
   <v>      -0.34375000       0.03125000       0.00000000 </v>
   <v>      -0.28125000       0.03125000       0.00000000 </v>
   <v>      -0.21875000       0.03125000       0.00000000 </v>
   <v>      -0.15625000       0.03125000       0.00000000 </v>
   <v>      -0.09375000       0.03125000       0.00000000 </v>
   <v>      -0.03125000       0.03125000       0.00000000 </v>
   <v>       0.09375000       0.09375000       0.00000000 </v>
   <v>       0.15625000       0.09375000       0.00000000 </v>
   <v>       0.21875000       0.09375000       0.00000000 </v>
   <v>       0.28125000       0.09375000       0.00000000 </v>
   <v>       0.34375000       0.09375000       0.00000000 </v>
   <v>       0.40625000       0.09375000       0.00000000 </v>
   <v>       0.46875000       0.09375000       0.00000000 </v>
   <v>      -0.46875000       0.09375000       0.00000000 </v>
   <v>      -0.40625000       0.09375000       0.00000000 </v>
   <v>      -0.34375000       0.09375000       0.00000000 </v>
   <v>      -0.28125000       0.09375000       0.00000000 </v>
   <v>      -0.21875000       0.09375000       0.00000000 </v>
   <v>      -0.15625000       0.09375000       0.00000000 </v>
   <v>      -0.09375000       0.09375000       0.00000000 </v>
   <v>       0.15625000       0.15625000       0.00000000 </v>
   <v>       0.21875000       0.15625000       0.00000000 </v>
   <v>       0.28125000       0.15625000       0.00000000 </v>
   <v>       0.34375000       0.15625000       0.00000000 </v>
   <v>       0.40625000       0.15625000       0.00000000 </v>
   <v>       0.46875000       0.15625000       0.00000000 </v>
   <v>      -0.46875000       0.15625000       0.00000000 </v>
   <v>      -0.40625000       0.15625000       0.00000000 </v>
   <v>      -0.34375000       0.15625000       0.00000000 </v>
   <v>      -0.28125000       0.15625000       0.00000000 </v>
   <v>      -0.21875000       0.15625000       0.00000000 </v>
   <v>      -0.15625000       0.15625000       0.00000000 </v>
   <v>       0.21875000       0.21875000       0.00000000 </v>
   <v>       0.28125000       0.21875000       0.00000000 </v>
   <v>       0.34375000       0.21875000       0.00000000 </v>
   <v>       0.40625000       0.21875000       0.00000000 </v>
   <v>       0.46875000       0.21875000       0.00000000 </v>
   <v>      -0.46875000       0.21875000       0.00000000 </v>
   <v>      -0.40625000       0.21875000       0.00000000 </v>
   <v>      -0.34375000       0.21875000       0.00000000 </v>
   <v>      -0.28125000       0.21875000       0.00000000 </v>
   <v>      -0.21875000       0.21875000       0.00000000 </v>
   <v>       0.28125000       0.28125000       0.00000000 </v>
   <v>       0.34375000       0.28125000       0.00000000 </v>
   <v>       0.40625000       0.28125000       0.00000000 </v>
   <v>       0.46875000       0.28125000       0.00000000 </v>
   <v>      -0.46875000       0.28125000       0.00000000 </v>
   <v>      -0.40625000       0.28125000       0.00000000 </v>
   <v>      -0.34375000       0.28125000       0.00000000 </v>
   <v>      -0.28125000       0.28125000       0.00000000 </v>
   <v>       0.34375000       0.34375000       0.00000000 </v>
   <v>       0.40625000       0.34375000       0.00000000 </v>
   <v>       0.46875000       0.34375000       0.00000000 </v>
   <v>      -0.46875000       0.34375000       0.00000000 </v>
   <v>      -0.40625000       0.34375000       0.00000000 </v>
   <v>      -0.34375000       0.34375000       0.00000000 </v>
   <v>       0.40625000       0.40625000       0.00000000 </v>
   <v>       0.46875000       0.40625000       0.00000000 </v>
   <v>      -0.46875000       0.40625000       0.00000000 </v>
   <v>      -0.40625000       0.40625000       0.00000000 </v>
   <v>       0.46875000       0.46875000       0.00000000 </v>
   <v>      -0.46875000       0.46875000       0.00000000 </v>
  </varray>
  <varray name="weights" >
   <v>       0.00781250 </v>
   <v>       0.01562500 </v>
   <v>       0.01562500 </v>
   <v>       0.01562500 </v>
   <v>       0.01562500 </v>
   <v>       0.01562500 </v>
   <v>       0.01562500 </v>
   <v>       0.01562500 </v>
   <v>       0.01562500 </v>
   <v>       0.01562500 </v>
   <v>       0.01562500 </v>
   <v>       0.01562500 </v>
   <v>       0.01562500 </v>
   <v>       0.01562500 </v>
   <v>       0.01562500 </v>
   <v>       0.00781250 </v>
   <v>       0.00781250 </v>
   <v>       0.01562500 </v>
   <v>       0.01562500 </v>
   <v>       0.01562500 </v>
   <v>       0.01562500 </v>
   <v>       0.01562500 </v>
   <v>       0.01562500 </v>
   <v>       0.01562500 </v>
   <v>       0.01562500 </v>
   <v>       0.01562500 </v>
   <v>       0.01562500 </v>
   <v>       0.01562500 </v>
   <v>       0.01562500 </v>
   <v>       0.00781250 </v>
   <v>       0.00781250 </v>
   <v>       0.01562500 </v>
   <v>       0.01562500 </v>
   <v>       0.01562500 </v>
   <v>       0.01562500 </v>
   <v>       0.01562500 </v>
   <v>       0.01562500 </v>
   <v>       0.01562500 </v>
   <v>       0.01562500 </v>
   <v>       0.01562500 </v>
   <v>       0.01562500 </v>
   <v>       0.00781250 </v>
   <v>       0.00781250 </v>
   <v>       0.01562500 </v>
   <v>       0.01562500 </v>
   <v>       0.01562500 </v>
   <v>       0.01562500 </v>
   <v>       0.01562500 </v>
   <v>       0.01562500 </v>
   <v>       0.01562500 </v>
   <v>       0.01562500 </v>
   <v>       0.00781250 </v>
   <v>       0.00781250 </v>
   <v>       0.01562500 </v>
   <v>       0.01562500 </v>
   <v>       0.01562500 </v>
   <v>       0.01562500 </v>
   <v>       0.01562500 </v>
   <v>       0.01562500 </v>
   <v>       0.00781250 </v>
   <v>       0.00781250 </v>
   <v>       0.01562500 </v>
   <v>       0.01562500 </v>
   <v>       0.01562500 </v>
   <v>       0.01562500 </v>
   <v>       0.00781250 </v>
   <v>       0.00781250 </v>
   <v>       0.01562500 </v>
   <v>       0.01562500 </v>
   <v>       0.00781250 </v>
   <v>       0.00781250 </v>
   <v>       0.00781250 </v>
  </varray>
 </kpoints>
 <parameters>
  <separator name="general" >
   <i type="string" name="SYSTEM">unknown system</i>
   <i type="logical" name="LCOMPAT"> F  </i>
  </separator>
  <separator name="electronic" >
   <i type="string" name="PREC">accura</i>
   <i name="ENMAX">    520.00000000</i>
   <i name="ENAUG">    644.87300000</i>
   <i name="EDIFF">      0.00000100</i>
   <i type="int" name="IALGO">    38</i>
   <i type="int" name="IWAVPR">    11</i>
   <i type="int" name="NBANDS">   128</i>
   <i name="NELECT">      8.00000000</i>
   <i type="int" name="TURBO">     0</i>
   <i type="int" name="IRESTART">     0</i>
   <i type="int" name="NREBOOT">     0</i>
   <i type="int" name="NMIN">     0</i>
   <i name="EREF">      0.00000000</i>
   <separator name="electronic smearing" >
    <i type="int" name="ISMEAR">     0</i>
    <i name="SIGMA">      0.10000000</i>
    <i name="KSPACING">      0.50000000</i>
    <i type="logical" name="KGAMMA"> T  </i>
   </separator>
   <separator name="electronic projectors" >
    <i type="logical" name="LREAL"> F  </i>
    <v name="ROPT">      0.00000000</v>
    <i type="int" name="LMAXPAW">  -100</i>
    <i type="int" name="LMAXMIX">     2</i>
    <i type="logical" name="NLSPLINE"> F  </i>
   </separator>
   <separator name="electronic startup" >
    <i type="int" name="ISTART">     0</i>
    <i type="int" name="ICHARG">     2</i>
    <i type="int" name="INIWAV">     1</i>
   </separator>
   <separator name="electronic spin" >
    <i type="int" name="ISPIN">     1</i>
    <i type="logical" name="LNONCOLLINEAR"> F  </i>
    <v name="MAGMOM">      1.00000000      1.00000000</v>
    <i name="NUPDOWN">     -1.00000000</i>
    <i type="logical" name="LSORBIT"> F  </i>
    <v name="SAXIS">      0.00000000      0.00000000      1.00000000</v>
    <i type="logical" name="LSPIRAL"> F  </i>
    <v name="QSPIRAL">      0.00000000      0.00000000      0.00000000</v>
    <i type="logical" name="LZEROZ"> F  </i>
   </separator>
   <separator name="electronic exchange-correlation" >
    <i type="logical" name="LASPH"> F  </i>
    <i type="logical" name="LMETAGGA"> F  </i>
   </separator>
   <separator name="electronic convergence" >
    <i type="int" name="NELM">    60</i>
    <i type="int" name="NELMDL">    -5</i>
    <i type="int" name="NELMIN">     2</i>
    <i name="ENINI">    520.00000000</i>
    <separator name="electronic convergence detail" >
     <i type="logical" name="LDIAG"> T  </i>
     <i type="logical" name="LSUBROT"> F  </i>
     <i name="WEIMIN">      0.00100000</i>
     <i name="EBREAK">      0.00000000</i>
     <i name="DEPER">      0.30000000</i>
     <i type="int" name="NRMM">     4</i>
     <i name="TIME">      0.40000000</i>
    </separator>
   </separator>
   <separator name="electronic mixer" >
    <i name="AMIX">      0.40000000</i>
    <i name="BMIX">      1.00000000</i>
    <i name="AMIN">      0.10000000</i>
    <i name="AMIX_MAG">      1.60000000</i>
    <i name="BMIX_MAG">      1.00000000</i>
    <separator name="electronic mixer details" >
     <i type="int" name="IMIX">     4</i>
     <i type="logical" name="MIXFIRST"> F  </i>
     <i type="int" name="MAXMIX">   -45</i>
     <i name="WC">    100.00000000</i>
     <i type="int" name="INIMIX">     1</i>
     <i type="int" name="MIXPRE">     1</i>
     <i type="int" name="MREMOVE">     5</i>
    </separator>
   </separator>
   <separator name="electronic dipolcorrection" >
    <i type="logical" name="LDIPOL"> F  </i>
    <i type="logical" name="LMONO"> F  </i>
    <i type="int" name="IDIPOL">     0</i>
    <i name="EPSILON">      1.00000000</i>
    <v name="DIPOL">   -100.00000000   -100.00000000   -100.00000000</v>
    <i name="EFIELD">      0.00000000</i>
   </separator>
  </separator>
  <separator name="grids" >
   <i type="int" name="NGX">    20</i>
   <i type="int" name="NGY">    20</i>
   <i type="int" name="NGZ">   120</i>
   <i type="int" name="NGXF">    40</i>
   <i type="int" name="NGYF">    40</i>
   <i type="int" name="NGZF">   240</i>
   <i type="logical" name="ADDGRID"> F  </i>
  </separator>
  <separator name="ionic" >
   <i type="int" name="NSW">    50</i>
   <i type="int" name="IBRION">     2</i>
   <i type="int" name="MDALGO">     0</i>
   <i type="int" name="ISIF">     2</i>
   <i name="PSTRESS">      0.00000000</i>
   <i name="EDIFFG">      0.00001000</i>
   <i type="int" name="NFREE">     1</i>
   <i name="POTIM">      0.10000000</i>
   <i name="SMASS">     -3.00000000</i>
   <i name="SCALEE">      1.00000000</i>
  </separator>
  <separator name="ionic md" >
   <i name="TEBEG">      0.00010000</i>
   <i name="TEEND">      0.00010000</i>
   <i type="int" name="NBLOCK">     1</i>
   <i type="int" name="KBLOCK">    50</i>
   <i type="int" name="NPACO">   256</i>
   <i name="APACO">     16.00000000</i>
  </separator>
  <separator name="symmetry" >
   <i type="int" name="ISYM">     2</i>
   <i name="SYMPREC">      0.00001000</i>
  </separator>
  <separator name="dos" >
   <i type="int" name="LORBIT">     0</i>
   <v name="RWIGS">     -1.00000000</v>
   <i type="int" name="NEDOS">   301</i>
   <i name="EMIN">     10.00000000</i>
   <i name="EMAX">    -10.00000000</i>
   <i name="EFERMI">      0.00000000</i>
  </separator>
  <separator name="writing" >
   <i type="int" name="NWRITE">     2</i>
   <i type="logical" name="LWAVE"> F  </i>
   <i type="logical" name="LDOWNSAMPLE"> F  </i>
   <i type="logical" name="LCHARG"> F  </i>
   <i type="logical" name="LPARD"> F  </i>
   <i type="logical" name="LVTOT"> F  </i>
   <i type="logical" name="LVHAR"> F  </i>
   <i type="logical" name="LELF"> F  </i>
   <i type="logical" name="LOPTICS"> F  </i>
   <v name="STM">      0.00000000      0.00000000      0.00000000      0.00000000      0.00000000      0.00000000      0.00000000</v>
  </separator>
  <separator name="performance" >
   <i type="int" name="NPAR">     4</i>
   <i type="int" name="NSIM">     4</i>
   <i type="int" name="NBLK">    -1</i>
   <i type="logical" name="LPLANE"> T  </i>
   <i type="logical" name="LSCALAPACK"> T  </i>
   <i type="logical" name="LSCAAWARE"> T  </i>
   <i type="logical" name="LSCALU"> F  </i>
   <i type="logical" name="LASYNC"> F  </i>
   <i type="logical" name="LORBITALREAL"> F  </i>
  </separator>
  <separator name="miscellaneous" >
   <i type="int" name="IDIOT">     3</i>
   <i type="int" name="ISPECIAL">     0</i>
   <i type="logical" name="LMUSIC"> F  </i>
   <v name="POMASS">     12.01100000</v>
   <v name="DARWINR">      0.00000000</v>
   <v name="DARWINV">      1.00000000</v>
   <i type="logical" name="LCORR"> T  </i>
  </separator>
  <i type="logical" name="GGA_COMPAT"> T  </i>
  <i type="logical" name="LBERRY"> F  </i>
  <i type="int" name="ICORELEVEL">     0</i>
  <i type="logical" name="LDAU"> F  </i>
  <i type="int" name="I_CONSTRAINED_M">     0</i>
  <separator name="electronic exchange-correlation" >
   <i type="string" name="GGA">--</i>
   <i type="int" name="VOSKOWN">     0</i>
   <i type="logical" name="LHFCALC"> F  </i>
   <i type="string" name="PRECFOCK"></i>
   <i type="logical" name="LSYMGRAD"> F  </i>
   <i type="logical" name="LHFONE"> F  </i>
   <i type="logical" name="LRHFCALC"> F  </i>
   <i type="logical" name="LTHOMAS"> F  </i>
   <i type="logical" name="LMODELHF"> F  </i>
   <i name="ENCUT4O">     -1.00000000</i>
   <i type="int" name="EXXOEP">     0</i>
   <i type="int" name="FOURORBIT">     0</i>
   <i name="AEXX">      0.00000000</i>
   <i name="HFALPHA">      0.00000000</i>
   <i name="MCALPHA">      0.00000000</i>
   <i name="ALDAX">      1.00000000</i>
   <i name="AGGAX">      1.00000000</i>
   <i name="ALDAC">      1.00000000</i>
   <i name="AGGAC">      1.00000000</i>
   <i type="int" name="NKREDX">     1</i>
   <i type="int" name="NKREDY">     1</i>
   <i type="int" name="NKREDZ">     1</i>
   <i type="logical" name="SHIFTRED"> F  </i>
   <i type="logical" name="ODDONLY"> F  </i>
   <i type="logical" name="EVENONLY"> F  </i>
   <i type="int" name="LMAXFOCK">     0</i>
   <i type="int" name="NMAXFOCKAE">     0</i>
   <i type="logical" name="LFOCKAEDFT"> F  </i>
   <i name="HFSCREEN">      0.00000000</i>
   <i name="HFSCREENC">      0.00000000</i>
   <i type="int" name="NBANDSGWLOW">     0</i>
  </separator>
  <separator name="vdW DFT" >
   <i type="logical" name="LUSE_VDW"> F  </i>
   <i name="Zab_VDW">     -0.84910000</i>
   <i name="PARAM1">      0.12340000</i>
   <i name="PARAM2">      1.00000000</i>
   <i name="PARAM3">      0.00000000</i>
  </separator>
  <separator name="model GW" >
   <i type="int" name="MODEL_GW">     0</i>
   <i name="MODEL_EPS0">     26.04674629</i>
   <i name="MODEL_ALPHA">      1.00000000</i>
  </separator>
  <separator name="linear response parameters" >
   <i type="logical" name="LEPSILON"> F  </i>
   <i type="logical" name="LRPA"> F  </i>
   <i type="logical" name="LNABLA"> F  </i>
   <i type="logical" name="LVEL"> F  </i>
   <i type="int" name="KINTER">     0</i>
   <i name="CSHIFT">      0.10000000</i>
   <i name="OMEGAMAX">     -1.00000000</i>
   <i name="DEG_THRESHOLD">      0.00200000</i>
   <i name="RTIME">     -0.10000000</i>
   <i name="WPLASMAI">      0.00000000</i>
   <v name="DFIELD">      0.00000000      0.00000000      0.00000000</v>
   <v name="WPLASMA">      0.00000000      0.00000000      0.00000000      0.00000000      0.00000000      0.00000000      0.00000000      0.00000000      0.00000000</v>
  </separator>
  <separator name="orbital magnetization" >
   <i type="logical" name="NUCIND"> F  </i>
   <v name="MAGPOS">      0.00000000      0.00000000      0.00000000</v>
   <i type="logical" name="LNICSALL"> T  </i>
   <i type="logical" name="ORBITALMAG"> F  </i>
   <i type="logical" name="LMAGBLOCH"> F  </i>
   <i type="logical" name="LCHIMAG"> F  </i>
   <i type="logical" name="LGAUGE"> T  </i>
   <i type="int" name="MAGATOM">     0</i>
   <v name="MAGDIPOL">      0.00000000      0.00000000      0.00000000</v>
   <v name="AVECCONST">      0.00000000      0.00000000      0.00000000</v>
  </separator>
  <separator name="response functions" >
   <i type="logical" name="LADDER"> F  </i>
   <i type="logical" name="LRPAFORCE"> F  </i>
   <i type="logical" name="LFXC"> F  </i>
   <i type="logical" name="LHARTREE"> T  </i>
   <i type="int" name="IBSE">     0</i>
   <v type="int" name="KPOINT">    -1     0     0     0</v>
   <i type="logical" name="LTCTE"> F  </i>
   <i type="logical" name="LTETE"> F  </i>
   <i type="logical" name="LTRIPLET"> F  </i>
   <i type="logical" name="LFXCEPS"> F  </i>
   <i type="logical" name="LFXHEG"> F  </i>
   <i type="int" name="NATURALO">     2</i>
   <i type="logical" name="L2ORDER"> F  </i>
   <i type="logical" name="LMP2LT"> F  </i>
   <i type="logical" name="LUSEW"> F  </i>
   <i name="ENCUTGW">     -2.00000000</i>
   <i name="ENCUTGWSOFT">     -2.00000000</i>
   <i name="ENCUTLF">     -1.00000000</i>
   <i type="int" name="LMAXMP2">    -1</i>
   <i name="SCISSOR">      0.00000000</i>
   <i type="int" name="NOMEGA">     0</i>
   <i type="int" name="NOMEGAR">     0</i>
   <i type="int" name="NBANDSGW">    -1</i>
   <i type="int" name="NBANDSO">    -1</i>
   <i type="int" name="NBANDSV">    -1</i>
   <i type="int" name="NELM">     1</i>
   <i type="int" name="NELMHF">     1</i>
   <i type="int" name="DIM">     3</i>
   <i type="int" name="ANTIRES">     0</i>
   <i name="OMEGAMAX">    -30.00000000</i>
   <i name="OMEGAMIN">    -30.00000000</i>
   <i name="OMEGATL">   -200.00000000</i>
   <i type="int" name="OMEGAGRID">   140</i>
   <i name="CSHIFT">     -0.10000000</i>
   <i type="logical" name="SELFENERGY"> F  </i>
   <i type="logical" name="LSPECTRAL"> F  </i>
   <i type="logical" name="LSPECTRALGW"> F  </i>
   <i type="logical" name="LSINGLES"> F  </i>
   <i type="logical" name="LFERMIGW"> F  </i>
   <i type="logical" name="ODDONLYGW"> F  </i>
   <i type="logical" name="EVENONLYGW"> F  </i>
   <i type="int" name="NKREDLFX">     1</i>
   <i type="int" name="NKREDLFY">     1</i>
   <i type="int" name="NKREDLFZ">     1</i>
   <i type="int" name="MAXMEM">  2800</i>
   <i type="int" name="TELESCOPE">     0</i>
   <i type="int" name="TAUPAR">     1</i>
   <i type="int" name="OMEGAPAR">    -1</i>
   <i name="LAMBDA">      1.00000000</i>
  </separator>
  <separator name="External order field" >
   <i name="OFIELD_KAPPA">      0.00000000</i>
   <v name="OFIELD_K">      0.00000000      0.00000000      0.00000000</v>
   <i name="OFIELD_Q6_NEAR">      0.00000000</i>
   <i name="OFIELD_Q6_FAR">      0.00000000</i>
   <i name="OFIELD_A">      0.00000000</i>
  </separator>
 </parameters>
 <atominfo>
  <atoms>       2 </atoms>
  <types>       1 </types>
  <array name="atoms" >
   <dimension dim="1">ion</dimension>
   <field type="string">element</field>
   <field type="int">atomtype</field>
   <set>
    <rc><c>C </c><c>   1</c></rc>
    <rc><c>C </c><c>   1</c></rc>
   </set>
  </array>
  <array name="atomtypes" >
   <dimension dim="1">type</dimension>
   <field type="int">atomspertype</field>
   <field type="string">element</field>
   <field>mass</field>
   <field>valence</field>
   <field type="string">pseudopotential</field>
   <set>
    <rc><c>   2</c><c>C </c><c>     12.01100000</c><c>      4.00000000</c><c> PAW_PBE C 08Apr2002                    </c></rc>
   </set>
  </array>
 </atominfo>
 <structure name="initialpos" >
  <crystal>
   <varray name="basis" >
    <v>       1.30825933      -2.13771446       0.00000000 </v>
    <v>       1.30825933       2.13771446       0.00000000 </v>
    <v>       0.00000000       0.00000000      15.52239374 </v>
   </varray>
   <i name="volume">     86.82248763 </i>
   <varray name="rec_basis" >
    <v>       0.38218722      -0.23389466       0.00000000 </v>
    <v>       0.38218722       0.23389466       0.00000000 </v>
    <v>       0.00000000       0.00000000       0.06442305 </v>
   </varray>
  </crystal>
  <varray name="positions" >
   <v>       0.66666762       0.33333238       0.50000000 </v>
   <v>       0.33333238       0.66666762       0.50000000 </v>
  </varray>
 </structure>
 <calculation>
  <scstep>
   <time name="dav">    3.59    3.59</time>
   <time name="total">    3.61    3.61</time>
   <energy>
    <i name="alphaZ">      3.75387374 </i>
    <i name="ewald">    817.44091337 </i>
    <i name="hartreedc">  -1039.72211745 </i>
    <i name="XCdc">     27.15425704 </i>
    <i name="pawpsdc">     75.66288619 </i>
    <i name="pawaedc">    -77.96384553 </i>
    <i name="eentropy">     -0.00000011 </i>
    <i name="bandstr">    -61.06726598 </i>
    <i name="atom">    294.29778662 </i>
    <i name="e_fr_energy">     39.55648789 </i>
    <i name="e_wo_entrp">     39.55648800 </i>
    <i name="e_0_energy">     39.55648794 </i>
   </energy>
  </scstep>
  <scstep>
   <time name="dav">    4.08    4.09</time>
   <time name="total">    4.09    4.09</time>
   <energy>
    <i name="e_fr_energy">    -17.61935739 </i>
    <i name="e_wo_entrp">    -17.61924650 </i>
    <i name="e_0_energy">    -17.61930194 </i>
   </energy>
  </scstep>
  <scstep>
   <time name="dav">    4.00    4.02</time>
   <time name="total">    4.01    4.02</time>
   <energy>
    <i name="e_fr_energy">    -19.22696439 </i>
    <i name="e_wo_entrp">    -19.22689799 </i>
    <i name="e_0_energy">    -19.22693119 </i>
   </energy>
  </scstep>
  <scstep>
   <time name="dav">    3.96    3.97</time>
   <time name="total">    3.96    3.98</time>
   <energy>
    <i name="e_fr_energy">    -19.22965904 </i>
    <i name="e_wo_entrp">    -19.22959267 </i>
    <i name="e_0_energy">    -19.22962585 </i>
   </energy>
  </scstep>
  <scstep>
   <time name="dav">    3.92    3.92</time>
   <time name="total">    3.94    3.94</time>
   <energy>
    <i name="e_fr_energy">    -19.22966482 </i>
    <i name="e_wo_entrp">    -19.22959845 </i>
    <i name="e_0_energy">    -19.22963163 </i>
   </energy>
  </scstep>
  <scstep>
   <time name="dav">    4.08    4.08</time>
   <time name="total">    4.11    4.11</time>
   <energy>
    <i name="e_fr_energy">    -18.52800128 </i>
    <i name="e_wo_entrp">    -18.52785228 </i>
    <i name="e_0_energy">    -18.52792678 </i>
   </energy>
  </scstep>
  <scstep>
   <time name="dav">    4.00    4.01</time>
   <time name="total">    4.04    4.04</time>
   <energy>
    <i name="e_fr_energy">    -18.26107454 </i>
    <i name="e_wo_entrp">    -18.26078871 </i>
    <i name="e_0_energy">    -18.26093162 </i>
   </energy>
  </scstep>
  <scstep>
   <time name="dav">    4.01    4.01</time>
   <time name="total">    4.04    4.05</time>
   <energy>
    <i name="e_fr_energy">    -18.25478364 </i>
    <i name="e_wo_entrp">    -18.25452272 </i>
    <i name="e_0_energy">    -18.25465318 </i>
   </energy>
  </scstep>
  <scstep>
   <time name="dav">    4.02    4.03</time>
   <time name="total">    4.05    4.06</time>
   <energy>
    <i name="e_fr_energy">    -18.25285615 </i>
    <i name="e_wo_entrp">    -18.25258806 </i>
    <i name="e_0_energy">    -18.25272211 </i>
   </energy>
  </scstep>
  <scstep>
   <time name="dav">    3.97    3.97</time>
   <time name="total">    4.00    4.00</time>
   <energy>
    <i name="e_fr_energy">    -18.25282684 </i>
    <i name="e_wo_entrp">    -18.25255223 </i>
    <i name="e_0_energy">    -18.25268954 </i>
   </energy>
  </scstep>
  <scstep>
   <time name="dav">    3.97    3.97</time>
   <time name="total">    4.00    4.00</time>
   <energy>
    <i name="e_fr_energy">    -18.25246559 </i>
    <i name="e_wo_entrp">    -18.25219330 </i>
    <i name="e_0_energy">    -18.25232944 </i>
   </energy>
  </scstep>
  <scstep>
   <time name="dav">    3.83    3.83</time>
   <time name="total">    3.86    3.86</time>
   <energy>
    <i name="e_fr_energy">    -18.25307273 </i>
    <i name="e_wo_entrp">    -18.25280256 </i>
    <i name="e_0_energy">    -18.25293765 </i>
   </energy>
  </scstep>
  <scstep>
   <time name="dav">    3.87    3.87</time>
   <time name="total">    3.90    3.90</time>
   <energy>
    <i name="e_fr_energy">    -18.25361384 </i>
    <i name="e_wo_entrp">    -18.25334237 </i>
    <i name="e_0_energy">    -18.25347810 </i>
   </energy>
  </scstep>
  <scstep>
   <time name="dav">    3.96    3.97</time>
   <time name="total">    3.99    3.99</time>
   <energy>
    <i name="e_fr_energy">    -18.25364946 </i>
    <i name="e_wo_entrp">    -18.25337743 </i>
    <i name="e_0_energy">    -18.25351344 </i>
   </energy>
  </scstep>
  <scstep>
   <time name="dav">    3.96    3.97</time>
   <time name="total">    3.99    3.99</time>
   <energy>
    <i name="e_fr_energy">    -18.25374647 </i>
    <i name="e_wo_entrp">    -18.25347521 </i>
    <i name="e_0_energy">    -18.25361084 </i>
   </energy>
  </scstep>
  <scstep>
   <time name="dav">    3.98    3.98</time>
   <time name="total">    4.01    4.02</time>
   <energy>
    <i name="e_fr_energy">    -18.25376157 </i>
    <i name="e_wo_entrp">    -18.25349017 </i>
    <i name="e_0_energy">    -18.25362587 </i>
   </energy>
  </scstep>
  <scstep>
   <time name="dav">    3.95    3.96</time>
   <time name="total">    3.98    3.99</time>
   <energy>
    <i name="e_fr_energy">    -18.25376473 </i>
    <i name="e_wo_entrp">    -18.25349329 </i>
    <i name="e_0_energy">    -18.25362901 </i>
   </energy>
  </scstep>
  <scstep>
   <time name="dav">    3.87    3.87</time>
   <time name="total">    3.88    3.89</time>
   <energy>
    <i name="alphaZ">      3.75387374 </i>
    <i name="ewald">    817.44091337 </i>
    <i name="hartreedc">  -1068.14839556 </i>
    <i name="XCdc">     28.22632377 </i>
    <i name="pawpsdc">    127.62811007 </i>
    <i name="pawaedc">   -130.16319351 </i>
    <i name="eentropy">     -0.00027142 </i>
    <i name="bandstr">    -91.28891245 </i>
    <i name="atom">    294.29778662 </i>
    <i name="e_fr_energy">    -18.25376537 </i>
    <i name="e_wo_entrp">    -18.25349395 </i>
    <i name="e_0_energy">    -18.25362966 </i>
   </energy>
  </scstep>
  <structure>
   <crystal>
    <varray name="basis" >
     <v>       1.30825933      -2.13771446       0.00000000 </v>
     <v>       1.30825933       2.13771446       0.00000000 </v>
     <v>       0.00000000       0.00000000      15.52239374 </v>
    </varray>
    <i name="volume">     86.82248763 </i>
    <varray name="rec_basis" >
     <v>       0.38218722      -0.23389466       0.00000000 </v>
     <v>       0.38218722       0.23389466       0.00000000 </v>
     <v>       0.00000000       0.00000000       0.06442305 </v>
    </varray>
   </crystal>
   <varray name="positions" >
    <v>       0.66666762       0.33333238       0.50000000 </v>
    <v>       0.33333238       0.66666762       0.50000000 </v>
   </varray>
  </structure>
  <varray name="forces" >
   <v>       0.00000000      -0.28219041       0.00000000 </v>
   <v>       0.00000000       0.28219041      -0.00000000 </v>
  </varray>
  <varray name="stress" >
   <v>    -113.35158280      -0.00000000       0.00000000 </v>
   <v>       0.00000000     -18.62518389       0.00000000 </v>
   <v>       0.00000000       0.00000000      -0.18026950 </v>
  </varray>
  <energy>
   <i name="e_fr_energy">    -18.25376537 </i>
   <i name="e_wo_entrp">    -18.25362966 </i>
   <i name="e_0_energy">     -0.00027142 </i>
  </energy>
  <time name="totalsc">   72.07   72.17</time>
 </calculation>
 <calculation>
  <scstep>
   <time name="dav">    3.77    3.77</time>
   <time name="total">    3.80    3.80</time>
   <energy>
    <i name="alphaZ">      3.75387374 </i>
    <i name="ewald">    817.37746563 </i>
    <i name="hartreedc">  -1068.12060641 </i>
    <i name="XCdc">     28.22448929 </i>
    <i name="pawpsdc">    127.62808150 </i>
    <i name="pawaedc">   -130.16316418 </i>
    <i name="eentropy">     -0.00053963 </i>
    <i name="bandstr">    -91.25205882 </i>
    <i name="atom">    294.29778662 </i>
    <i name="e_fr_energy">    -18.25467226 </i>
    <i name="e_wo_entrp">    -18.25413263 </i>
    <i name="e_0_energy">    -18.25440244 </i>
   </energy>
  </scstep>
  <scstep>
   <time name="dav">    3.89    3.90</time>
   <time name="total">    3.92    3.93</time>
   <energy>
    <i name="e_fr_energy">    -18.25465009 </i>
    <i name="e_wo_entrp">    -18.25412126 </i>
    <i name="e_0_energy">    -18.25438568 </i>
   </energy>
  </scstep>
  <scstep>
   <time name="dav">    3.87    3.87</time>
   <time name="total">    3.90    3.90</time>
   <energy>
    <i name="e_fr_energy">    -18.25463202 </i>
    <i name="e_wo_entrp">    -18.25411517 </i>
    <i name="e_0_energy">    -18.25437360 </i>
   </energy>
  </scstep>
  <scstep>
   <time name="dav">    3.87    3.88</time>
   <time name="total">    3.89    3.89</time>
   <energy>
    <i name="alphaZ">      3.75387374 </i>
    <i name="ewald">    817.37746563 </i>
    <i name="hartreedc">  -1068.09744651 </i>
    <i name="XCdc">     28.22339826 </i>
    <i name="pawpsdc">    127.52553697 </i>
    <i name="pawaedc">   -130.06011701 </i>
    <i name="eentropy">     -0.00051780 </i>
    <i name="bandstr">    -91.27461192 </i>
    <i name="atom">    294.29778662 </i>
    <i name="e_fr_energy">    -18.25463201 </i>
    <i name="e_wo_entrp">    -18.25411421 </i>
    <i name="e_0_energy">    -18.25437311 </i>
   </energy>
  </scstep>
  <structure>
   <crystal>
    <varray name="basis" >
     <v>       1.30825933      -2.13771446       0.00000000 </v>
     <v>       1.30825933       2.13771446       0.00000000 </v>
     <v>       0.00000000       0.00000000      15.52239374 </v>
    </varray>
    <i name="volume">     86.82248763 </i>
    <varray name="rec_basis" >
     <v>       0.38218722      -0.23389466       0.00000000 </v>
     <v>       0.38218722       0.23389466       0.00000000 </v>
     <v>       0.00000000       0.00000000       0.06442305 </v>
    </varray>
   </crystal>
   <varray name="positions" >
    <v>       0.66730445       0.33269555       0.50000000 </v>
    <v>       0.33269555       0.66730445       0.50000000 </v>
   </varray>
  </structure>
  <varray name="forces" >
   <v>       0.00000000      -0.03874904       0.00000000 </v>
   <v>       0.00000000       0.03874904      -0.00000000 </v>
  </varray>
  <varray name="stress" >
   <v>    -113.39401759       0.00000000       0.00000000 </v>
   <v>       0.00000000     -19.78985511       0.00000000 </v>
   <v>       0.00000000       0.00000000      -0.18403641 </v>
  </varray>
  <energy>
   <i name="e_fr_energy">    -18.25463201 </i>
   <i name="e_wo_entrp">    -18.25437311 </i>
   <i name="e_0_energy">     -0.00051780 </i>
  </energy>
  <time name="totalsc">   16.13   16.15</time>
 </calculation>
 <calculation>
  <scstep>
   <time name="dav">    3.86    3.86</time>
   <time name="total">    3.89    3.90</time>
   <energy>
    <i name="alphaZ">      3.75387374 </i>
    <i name="ewald">    817.36745118 </i>
    <i name="hartreedc">  -1068.09200423 </i>
    <i name="XCdc">     28.22311344 </i>
    <i name="pawpsdc">    127.52241323 </i>
    <i name="pawaedc">   -130.05701222 </i>
    <i name="eentropy">     -0.00056586 </i>
    <i name="bandstr">    -91.26970642 </i>
    <i name="atom">    294.29778662 </i>
    <i name="e_fr_energy">    -18.25465051 </i>
    <i name="e_wo_entrp">    -18.25408465 </i>
    <i name="e_0_energy">    -18.25436758 </i>
   </energy>
  </scstep>
  <scstep>
   <time name="dav">    3.82    3.82</time>
   <time name="total">    3.84    3.84</time>
   <energy>
    <i name="alphaZ">      3.75387374 </i>
    <i name="ewald">    817.36745118 </i>
    <i name="hartreedc">  -1068.08978838 </i>
    <i name="XCdc">     28.22301643 </i>
    <i name="pawpsdc">    127.51462047 </i>
    <i name="pawaedc">   -130.04917384 </i>
    <i name="eentropy">     -0.00056408 </i>
    <i name="bandstr">    -91.27187205 </i>
    <i name="atom">    294.29778662 </i>
    <i name="e_fr_energy">    -18.25464991 </i>
    <i name="e_wo_entrp">    -18.25408583 </i>
    <i name="e_0_energy">    -18.25436787 </i>
   </energy>
  </scstep>
  <structure>
   <crystal>
    <varray name="basis" >
     <v>       1.30825933      -2.13771446       0.00000000 </v>
     <v>       1.30825933       2.13771446       0.00000000 </v>
     <v>       0.00000000       0.00000000      15.52239374 </v>
    </varray>
    <i name="volume">     86.82248763 </i>
    <varray name="rec_basis" >
     <v>       0.38218722      -0.23389466       0.00000000 </v>
     <v>       0.38218722       0.23389466       0.00000000 </v>
     <v>       0.00000000       0.00000000       0.06442305 </v>
    </varray>
   </crystal>
   <varray name="positions" >
    <v>       0.66740981       0.33259019       0.50000000 </v>
    <v>       0.33259019       0.66740981       0.50000000 </v>
   </varray>
  </structure>
  <varray name="forces" >
   <v>       0.00000000      -0.00217737       0.00000000 </v>
   <v>       0.00000000       0.00217737       0.00000000 </v>
  </varray>
  <varray name="stress" >
   <v>    -113.53479372       0.00000000       0.00000000 </v>
   <v>       0.00000000     -19.85181463       0.00000000 </v>
   <v>       0.00000000       0.00000000      -0.21423666 </v>
  </varray>
  <energy>
   <i name="e_fr_energy">    -18.25464991 </i>
   <i name="e_wo_entrp">    -18.25436787 </i>
   <i name="e_0_energy">     -0.00056408 </i>
  </energy>
  <time name="totalsc">    8.13    8.15</time>
  <eigenvalues>
   <array>
    <dimension dim="1">band</dimension>
    <dimension dim="2">kpoint</dimension>
    <dimension dim="3">spin</dimension>
    <field>eigene</field>
    <field>occ</field>
    <set>
     <set comment="spin 1">
      <set comment="kpoint 1">
       <r>  -21.3634    1.0000 </r>
       <r>   -9.5739    1.0000 </r>
       <r>   -6.0636    1.0000 </r>
       <r>   -5.6839    1.0000 </r>
       <r>    0.9953    0.0000 </r>
       <r>    1.8668    0.0000 </r>
       <r>    2.3967    0.0000 </r>
       <r>    4.1162    0.0000 </r>
       <r>    4.7430    0.0000 </r>
       <r>    4.8823    0.0000 </r>
       <r>    5.4844    0.0000 </r>
       <r>    7.4945    0.0000 </r>
       <r>    7.7385    0.0000 </r>
       <r>    8.4843    0.0000 </r>
       <r>    8.8041    0.0000 </r>
       <r>   12.6867    0.0000 </r>
       <r>   14.1315    0.0000 </r>
       <r>   18.7323    0.0000 </r>
       <r>   18.9933    0.0000 </r>
       <r>   20.8057    0.0000 </r>
       <r>   23.2313    0.0000 </r>
       <r>   23.4538    0.0000 </r>
       <r>   25.8557    0.0000 </r>
       <r>   27.5236    0.0000 </r>
       <r>   28.0038    0.0000 </r>
       <r>   28.3780    0.0000 </r>
       <r>   28.7365    0.0000 </r>
       <r>   28.8561    0.0000 </r>
       <r>   29.7165    0.0000 </r>
       <r>   29.7533    0.0000 </r>
       <r>   29.8115    0.0000 </r>
       <r>   29.8543    0.0000 </r>
       <r>   30.5052    0.0000 </r>
       <r>   31.7237    0.0000 </r>
       <r>   31.9525    0.0000 </r>
       <r>   32.0214    0.0000 </r>
       <r>   32.2170    0.0000 </r>
       <r>   32.9700    0.0000 </r>
       <r>   33.2444    0.0000 </r>
       <r>   33.5880    0.0000 </r>
       <r>   34.1170    0.0000 </r>
       <r>   34.2439    0.0000 </r>
       <r>   34.8817    0.0000 </r>
       <r>   35.1158    0.0000 </r>
       <r>   35.1593    0.0000 </r>
       <r>   35.1911    0.0000 </r>
       <r>   35.2159    0.0000 </r>
       <r>   35.2282    0.0000 </r>
       <r>   35.2481    0.0000 </r>
       <r>   35.5954    0.0000 </r>
       <r>   35.7882    0.0000 </r>
       <r>   35.8781    0.0000 </r>
       <r>   36.0451    0.0000 </r>
       <r>   36.7777    0.0000 </r>
       <r>   36.9473    0.0000 </r>
       <r>   37.1284    0.0000 </r>
       <r>   37.2597    0.0000 </r>
       <r>   37.5052    0.0000 </r>
       <r>   37.5784    0.0000 </r>
       <r>   37.6961    0.0000 </r>
       <r>   37.7054    0.0000 </r>
       <r>   38.1800    0.0000 </r>
       <r>   38.2108    0.0000 </r>
       <r>   39.7001    0.0000 </r>
       <r>   39.8874    0.0000 </r>
       <r>   40.6612    0.0000 </r>
       <r>   40.9055    0.0000 </r>
       <r>   40.9253    0.0000 </r>
       <r>   41.2135    0.0000 </r>
       <r>   41.2274    0.0000 </r>
       <r>   41.6072    0.0000 </r>
       <r>   41.6577    0.0000 </r>
       <r>   41.7607    0.0000 </r>
       <r>   41.7940    0.0000 </r>
       <r>   42.3935    0.0000 </r>
       <r>   43.5423    0.0000 </r>
       <r>   44.8599    0.0000 </r>
       <r>   44.9866    0.0000 </r>
       <r>   45.4754    0.0000 </r>
       <r>   46.3030    0.0000 </r>
       <r>   46.4589    0.0000 </r>
       <r>   46.6349    0.0000 </r>
       <r>   46.9391    0.0000 </r>
       <r>   47.5894    0.0000 </r>
       <r>   47.7085    0.0000 </r>
       <r>   47.7178    0.0000 </r>
       <r>   47.9152    0.0000 </r>
       <r>   48.2670    0.0000 </r>
       <r>   48.9071    0.0000 </r>
       <r>   49.1074    0.0000 </r>
       <r>   49.1993    0.0000 </r>
       <r>   51.5394    0.0000 </r>
       <r>   52.9264    0.0000 </r>
       <r>   53.0720    0.0000 </r>
       <r>   53.1488    0.0000 </r>
       <r>   53.5008    0.0000 </r>
       <r>   53.6650    0.0000 </r>
       <r>   54.4250    0.0000 </r>
       <r>   54.5606    0.0000 </r>
       <r>   55.1574    0.0000 </r>
       <r>   55.6557    0.0000 </r>
       <r>   55.9664    0.0000 </r>
       <r>   56.4758    0.0000 </r>
       <r>   58.3659    0.0000 </r>
       <r>   59.4014    0.0000 </r>
       <r>   59.8338    0.0000 </r>
       <r>   60.7575    0.0000 </r>
       <r>   60.8030    0.0000 </r>
       <r>   61.2170    0.0000 </r>
       <r>   61.6461    0.0000 </r>
       <r>   62.1021    0.0000 </r>
       <r>   62.1079    0.0000 </r>
       <r>   62.2154    0.0000 </r>
       <r>   62.7231    0.0000 </r>
       <r>   64.1081    0.0000 </r>
       <r>   64.7820    0.0000 </r>
       <r>   64.9707    0.0000 </r>
       <r>   65.8497    0.0000 </r>
       <r>   67.8169    0.0000 </r>
       <r>   68.5499    0.0000 </r>
       <r>   68.5518    0.0000 </r>
       <r>   69.6929    0.0000 </r>
       <r>   70.3919    0.0000 </r>
       <r>   70.4958    0.0000 </r>
       <r>   70.8794    0.0000 </r>
       <r>   71.0168    0.0000 </r>
       <r>   71.1944    0.0000 </r>
       <r>   72.6593    0.0000 </r>
      </set>
      <set comment="kpoint 2">
       <r>  -21.1556    1.0000 </r>
       <r>   -9.3314    1.0000 </r>
       <r>   -6.8521    1.0000 </r>
       <r>   -6.1327    1.0000 </r>
       <r>    1.2762    0.0000 </r>
       <r>    2.1499    0.0000 </r>
       <r>    2.6836    0.0000 </r>
       <r>    4.3974    0.0000 </r>
       <r>    5.0161    0.0000 </r>
       <r>    5.2150    0.0000 </r>
       <r>    6.3744    0.0000 </r>
       <r>    6.8167    0.0000 </r>
       <r>    8.0111    0.0000 </r>
       <r>    8.7202    0.0000 </r>
       <r>    9.0874    0.0000 </r>
       <r>   12.9306    0.0000 </r>
       <r>   14.4074    0.0000 </r>
       <r>   18.7423    0.0000 </r>
       <r>   19.4346    0.0000 </r>
       <r>   21.0924    0.0000 </r>
       <r>   21.4018    0.0000 </r>
       <r>   22.8619    0.0000 </r>
       <r>   24.9223    0.0000 </r>
       <r>   25.8853    0.0000 </r>
       <r>   26.3262    0.0000 </r>
       <r>   26.4069    0.0000 </r>
       <r>   26.8959    0.0000 </r>
       <r>   27.7265    0.0000 </r>
       <r>   28.3619    0.0000 </r>
       <r>   28.4676    0.0000 </r>
       <r>   28.7279    0.0000 </r>
       <r>   28.9395    0.0000 </r>
       <r>   28.9905    0.0000 </r>
       <r>   30.3077    0.0000 </r>
       <r>   30.6148    0.0000 </r>
       <r>   30.9240    0.0000 </r>
       <r>   31.8818    0.0000 </r>
       <r>   32.2964    0.0000 </r>
       <r>   32.5148    0.0000 </r>
       <r>   32.7644    0.0000 </r>
       <r>   33.4096    0.0000 </r>
       <r>   33.4544    0.0000 </r>
       <r>   34.3744    0.0000 </r>
       <r>   34.4530    0.0000 </r>
       <r>   35.0187    0.0000 </r>
       <r>   35.5653    0.0000 </r>
       <r>   35.6934    0.0000 </r>
       <r>   35.9278    0.0000 </r>
       <r>   36.1774    0.0000 </r>
       <r>   36.7689    0.0000 </r>
       <r>   37.1951    0.0000 </r>
       <r>   37.3253    0.0000 </r>
       <r>   37.4697    0.0000 </r>
       <r>   37.4919    0.0000 </r>
       <r>   37.6550    0.0000 </r>
       <r>   37.9474    0.0000 </r>
       <r>   38.1918    0.0000 </r>
       <r>   38.9008    0.0000 </r>
       <r>   38.9491    0.0000 </r>
       <r>   39.1905    0.0000 </r>
       <r>   39.2991    0.0000 </r>
       <r>   39.4514    0.0000 </r>
       <r>   39.6010    0.0000 </r>
       <r>   39.7317    0.0000 </r>
       <r>   39.9402    0.0000 </r>
       <r>   40.1763    0.0000 </r>
       <r>   40.2980    0.0000 </r>
       <r>   40.9440    0.0000 </r>
       <r>   41.4868    0.0000 </r>
       <r>   41.9920    0.0000 </r>
       <r>   42.6998    0.0000 </r>
       <r>   42.8461    0.0000 </r>
       <r>   43.6961    0.0000 </r>
       <r>   43.9207    0.0000 </r>
       <r>   44.0738    0.0000 </r>
       <r>   44.2414    0.0000 </r>
       <r>   44.4560    0.0000 </r>
       <r>   44.7984    0.0000 </r>
       <r>   45.4334    0.0000 </r>
       <r>   45.9726    0.0000 </r>
       <r>   46.1687    0.0000 </r>
       <r>   46.6701    0.0000 </r>
       <r>   46.9861    0.0000 </r>
       <r>   47.1677    0.0000 </r>
       <r>   48.6083    0.0000 </r>
       <r>   48.7766    0.0000 </r>
       <r>   49.1103    0.0000 </r>
       <r>   49.1164    0.0000 </r>
       <r>   49.5653    0.0000 </r>
       <r>   50.6660    0.0000 </r>
       <r>   51.1981    0.0000 </r>
       <r>   51.3561    0.0000 </r>
       <r>   51.9365    0.0000 </r>
       <r>   52.2211    0.0000 </r>
       <r>   52.8836    0.0000 </r>
       <r>   53.8648    0.0000 </r>
       <r>   54.5360    0.0000 </r>
       <r>   54.7390    0.0000 </r>
       <r>   55.6332    0.0000 </r>
       <r>   55.7220    0.0000 </r>
       <r>   56.0218    0.0000 </r>
       <r>   56.8595    0.0000 </r>
       <r>   57.9354    0.0000 </r>
       <r>   58.5618    0.0000 </r>
       <r>   59.1440    0.0000 </r>
       <r>   59.5531    0.0000 </r>
       <r>   60.1956    0.0000 </r>
       <r>   61.2518    0.0000 </r>
       <r>   61.2851    0.0000 </r>
       <r>   61.8424    0.0000 </r>
       <r>   62.5994    0.0000 </r>
       <r>   63.1980    0.0000 </r>
       <r>   63.3819    0.0000 </r>
       <r>   63.4346    0.0000 </r>
       <r>   63.8344    0.0000 </r>
       <r>   64.5456    0.0000 </r>
       <r>   65.2737    0.0000 </r>
       <r>   65.8398    0.0000 </r>
       <r>   67.6907    0.0000 </r>
       <r>   68.1255    0.0000 </r>
       <r>   68.6273    0.0000 </r>
       <r>   69.0838    0.0000 </r>
       <r>   71.1683    0.0000 </r>
       <r>   71.5655    0.0000 </r>
       <r>   72.1064    0.0000 </r>
       <r>   72.1905    0.0000 </r>
       <r>   72.5385    0.0000 </r>
       <r>   72.6654    0.0000 </r>
      </set>
      <set comment="kpoint 3">
       <r>  -20.7801    1.0000 </r>
       <r>   -8.8955    1.0000 </r>
       <r>   -8.1137    1.0000 </r>
       <r>   -6.6968    1.0000 </r>
       <r>    1.7864    0.0000 </r>
       <r>    2.6616    0.0000 </r>
       <r>    3.2045    0.0000 </r>
       <r>    4.9004    0.0000 </r>
       <r>    5.2935    0.0000 </r>
       <r>    5.6996    0.0000 </r>
       <r>    5.7266    0.0000 </r>
       <r>    7.6564    0.0000 </r>
       <r>    8.5032    0.0000 </r>
       <r>    9.3898    0.0000 </r>
       <r>    9.6120    0.0000 </r>
       <r>   13.3535    0.0000 </r>
       <r>   14.9030    0.0000 </r>
       <r>   18.1963    0.0000 </r>
       <r>   19.8287    0.0000 </r>
       <r>   20.4102    0.0000 </r>
       <r>   21.5639    0.0000 </r>
       <r>   21.7993    0.0000 </r>
       <r>   22.1597    0.0000 </r>
       <r>   23.1877    0.0000 </r>
       <r>   23.3098    0.0000 </r>
       <r>   25.3281    0.0000 </r>
       <r>   25.4775    0.0000 </r>
       <r>   25.9118    0.0000 </r>
       <r>   26.5337    0.0000 </r>
       <r>   26.9946    0.0000 </r>
       <r>   27.1938    0.0000 </r>
       <r>   28.4541    0.0000 </r>
       <r>   29.3723    0.0000 </r>
       <r>   29.4297    0.0000 </r>
       <r>   29.4833    0.0000 </r>
       <r>   29.5118    0.0000 </r>
       <r>   29.9577    0.0000 </r>
       <r>   30.5843    0.0000 </r>
       <r>   31.8607    0.0000 </r>
       <r>   31.9443    0.0000 </r>
       <r>   32.6071    0.0000 </r>
       <r>   33.3246    0.0000 </r>
       <r>   33.4339    0.0000 </r>
       <r>   34.1576    0.0000 </r>
       <r>   34.3048    0.0000 </r>
       <r>   34.3644    0.0000 </r>
       <r>   34.6152    0.0000 </r>
       <r>   35.5831    0.0000 </r>
       <r>   36.3265    0.0000 </r>
       <r>   37.7449    0.0000 </r>
       <r>   37.7726    0.0000 </r>
       <r>   37.7814    0.0000 </r>
       <r>   38.0752    0.0000 </r>
       <r>   38.5307    0.0000 </r>
       <r>   38.5470    0.0000 </r>
       <r>   38.7572    0.0000 </r>
       <r>   39.4027    0.0000 </r>
       <r>   39.5872    0.0000 </r>
       <r>   39.7621    0.0000 </r>
       <r>   40.0670    0.0000 </r>
       <r>   40.1750    0.0000 </r>
       <r>   40.7864    0.0000 </r>
       <r>   41.1117    0.0000 </r>
       <r>   41.3548    0.0000 </r>
       <r>   41.7448    0.0000 </r>
       <r>   42.3140    0.0000 </r>
       <r>   42.3428    0.0000 </r>
       <r>   42.5246    0.0000 </r>
       <r>   43.0246    0.0000 </r>
       <r>   43.1573    0.0000 </r>
       <r>   43.6036    0.0000 </r>
       <r>   43.7985    0.0000 </r>
       <r>   44.5025    0.0000 </r>
       <r>   44.6918    0.0000 </r>
       <r>   45.1996    0.0000 </r>
       <r>   45.4287    0.0000 </r>
       <r>   45.7875    0.0000 </r>
       <r>   45.9185    0.0000 </r>
       <r>   46.2054    0.0000 </r>
       <r>   46.4766    0.0000 </r>
       <r>   47.3452    0.0000 </r>
       <r>   47.5760    0.0000 </r>
       <r>   48.2919    0.0000 </r>
       <r>   49.0493    0.0000 </r>
       <r>   49.3991    0.0000 </r>
       <r>   49.7664    0.0000 </r>
       <r>   50.0221    0.0000 </r>
       <r>   50.2179    0.0000 </r>
       <r>   50.4120    0.0000 </r>
       <r>   51.2019    0.0000 </r>
       <r>   51.5095    0.0000 </r>
       <r>   51.5619    0.0000 </r>
       <r>   51.9993    0.0000 </r>
       <r>   52.8591    0.0000 </r>
       <r>   53.5083    0.0000 </r>
       <r>   54.8607    0.0000 </r>
       <r>   55.2660    0.0000 </r>
       <r>   56.0036    0.0000 </r>
       <r>   57.0434    0.0000 </r>
       <r>   57.3132    0.0000 </r>
       <r>   57.8522    0.0000 </r>
       <r>   58.0122    0.0000 </r>
       <r>   58.3736    0.0000 </r>
       <r>   58.4252    0.0000 </r>
       <r>   58.8923    0.0000 </r>
       <r>   59.7777    0.0000 </r>
       <r>   60.4475    0.0000 </r>
       <r>   60.9058    0.0000 </r>
       <r>   61.6766    0.0000 </r>
       <r>   61.9164    0.0000 </r>
       <r>   62.2341    0.0000 </r>
       <r>   62.8606    0.0000 </r>
       <r>   64.4055    0.0000 </r>
       <r>   65.0110    0.0000 </r>
       <r>   65.2689    0.0000 </r>
       <r>   65.9387    0.0000 </r>
       <r>   66.2588    0.0000 </r>
       <r>   66.9485    0.0000 </r>
       <r>   67.4585    0.0000 </r>
       <r>   68.6735    0.0000 </r>
       <r>   68.7994    0.0000 </r>
       <r>   69.1945    0.0000 </r>
       <r>   69.2931    0.0000 </r>
       <r>   70.4018    0.0000 </r>
       <r>   71.5899    0.0000 </r>
       <r>   71.7395    0.0000 </r>
       <r>   72.2298    0.0000 </r>
       <r>   72.6503    0.0000 </r>
      </set>
      <set comment="kpoint 4">
       <r>  -20.2399    1.0000 </r>
       <r>   -9.6061    1.0000 </r>
       <r>   -8.2755    1.0000 </r>
       <r>   -7.2656    1.0000 </r>
       <r>    2.5250    0.0000 </r>
       <r>    3.3841    0.0000 </r>
       <r>    3.9586    0.0000 </r>
       <r>    4.3410    0.0000 </r>
       <r>    5.2985    0.0000 </r>
       <r>    5.6618    0.0000 </r>
       <r>    6.4157    0.0000 </r>
       <r>    9.2079    0.0000 </r>
       <r>    9.2233    0.0000 </r>
       <r>   10.2743    0.0000 </r>
       <r>   10.5557    0.0000 </r>
       <r>   13.8874    0.0000 </r>
       <r>   15.6094    0.0000 </r>
       <r>   16.9717    0.0000 </r>
       <r>   18.4586    0.0000 </r>
       <r>   19.7021    0.0000 </r>
       <r>   19.9740    0.0000 </r>
       <r>   20.8355    0.0000 </r>
       <r>   21.0954    0.0000 </r>
       <r>   21.1823    0.0000 </r>
       <r>   22.3590    0.0000 </r>
       <r>   22.9516    0.0000 </r>
       <r>   23.1087    0.0000 </r>
       <r>   24.8906    0.0000 </r>
       <r>   25.5882    0.0000 </r>
       <r>   26.1907    0.0000 </r>
       <r>   26.2215    0.0000 </r>
       <r>   26.7117    0.0000 </r>
       <r>   27.8341    0.0000 </r>
       <r>   28.1560    0.0000 </r>
       <r>   28.3927    0.0000 </r>
       <r>   29.3156    0.0000 </r>
       <r>   29.5973    0.0000 </r>
       <r>   30.2093    0.0000 </r>
       <r>   30.6649    0.0000 </r>
       <r>   30.9187    0.0000 </r>
       <r>   31.8221    0.0000 </r>
       <r>   31.9476    0.0000 </r>
       <r>   32.3185    0.0000 </r>
       <r>   32.5644    0.0000 </r>
       <r>   33.2092    0.0000 </r>
       <r>   33.2752    0.0000 </r>
       <r>   35.3515    0.0000 </r>
       <r>   35.7055    0.0000 </r>
       <r>   36.0341    0.0000 </r>
       <r>   36.8715    0.0000 </r>
       <r>   37.2635    0.0000 </r>
       <r>   37.5811    0.0000 </r>
       <r>   37.8340    0.0000 </r>
       <r>   38.4657    0.0000 </r>
       <r>   38.8922    0.0000 </r>
       <r>   39.0448    0.0000 </r>
       <r>   40.5276    0.0000 </r>
       <r>   40.6499    0.0000 </r>
       <r>   40.7871    0.0000 </r>
       <r>   41.7956    0.0000 </r>
       <r>   41.9440    0.0000 </r>
       <r>   42.0008    0.0000 </r>
       <r>   42.1605    0.0000 </r>
       <r>   42.7443    0.0000 </r>
       <r>   42.9066    0.0000 </r>
       <r>   43.2491    0.0000 </r>
       <r>   43.8100    0.0000 </r>
       <r>   44.1628    0.0000 </r>
       <r>   44.2989    0.0000 </r>
       <r>   44.6710    0.0000 </r>
       <r>   45.0350    0.0000 </r>
       <r>   45.4011    0.0000 </r>
       <r>   45.6255    0.0000 </r>
       <r>   46.4767    0.0000 </r>
       <r>   47.0512    0.0000 </r>
       <r>   47.3171    0.0000 </r>
       <r>   47.7697    0.0000 </r>
       <r>   48.0353    0.0000 </r>
       <r>   48.2703    0.0000 </r>
       <r>   48.2823    0.0000 </r>
       <r>   48.9591    0.0000 </r>
       <r>   49.0610    0.0000 </r>
       <r>   49.4025    0.0000 </r>
       <r>   49.6287    0.0000 </r>
       <r>   50.1991    0.0000 </r>
       <r>   50.5361    0.0000 </r>
       <r>   50.8099    0.0000 </r>
       <r>   51.6010    0.0000 </r>
       <r>   52.4354    0.0000 </r>
       <r>   53.0371    0.0000 </r>
       <r>   53.2189    0.0000 </r>
       <r>   53.9339    0.0000 </r>
       <r>   54.1581    0.0000 </r>
       <r>   54.3910    0.0000 </r>
       <r>   54.9335    0.0000 </r>
       <r>   55.1598    0.0000 </r>
       <r>   55.6977    0.0000 </r>
       <r>   55.9431    0.0000 </r>
       <r>   56.7699    0.0000 </r>
       <r>   58.5319    0.0000 </r>
       <r>   58.7768    0.0000 </r>
       <r>   58.9023    0.0000 </r>
       <r>   58.9352    0.0000 </r>
       <r>   60.3212    0.0000 </r>
       <r>   60.6860    0.0000 </r>
       <r>   60.7819    0.0000 </r>
       <r>   60.9911    0.0000 </r>
       <r>   61.5793    0.0000 </r>
       <r>   61.9676    0.0000 </r>
       <r>   62.2262    0.0000 </r>
       <r>   62.5255    0.0000 </r>
       <r>   64.3950    0.0000 </r>
       <r>   64.5948    0.0000 </r>
       <r>   65.5663    0.0000 </r>
       <r>   65.9131    0.0000 </r>
       <r>   66.0880    0.0000 </r>
       <r>   66.2366    0.0000 </r>
       <r>   67.4379    0.0000 </r>
       <r>   67.7316    0.0000 </r>
       <r>   68.1050    0.0000 </r>
       <r>   68.6037    0.0000 </r>
       <r>   68.8342    0.0000 </r>
       <r>   69.2882    0.0000 </r>
       <r>   69.6507    0.0000 </r>
       <r>   70.2871    0.0000 </r>
       <r>   70.3439    0.0000 </r>
       <r>   71.5453    0.0000 </r>
       <r>   71.6624    0.0000 </r>
      </set>
      <set comment="kpoint 5">
       <r>  -19.5412    1.0000 </r>
       <r>  -11.1656    1.0000 </r>
       <r>   -7.7689    1.0000 </r>
       <r>   -7.4901    1.0000 </r>
       <r>    2.7641    0.0000 </r>
       <r>    3.4885    0.0000 </r>
       <r>    4.4080    0.0000 </r>
       <r>    4.9286    0.0000 </r>
       <r>    5.1540    0.0000 </r>
       <r>    6.6206    0.0000 </r>
       <r>    7.3763    0.0000 </r>
       <r>   10.1089    0.0000 </r>
       <r>   10.8687    0.0000 </r>
       <r>   11.2239    0.0000 </r>
       <r>   11.7753    0.0000 </r>
       <r>   14.2022    0.0000 </r>
       <r>   15.8627    0.0000 </r>
       <r>   16.0876    0.0000 </r>
       <r>   16.5455    0.0000 </r>
       <r>   17.3514    0.0000 </r>
       <r>   17.6747    0.0000 </r>
       <r>   19.3623    0.0000 </r>
       <r>   19.6268    0.0000 </r>
       <r>   20.5117    0.0000 </r>
       <r>   21.7576    0.0000 </r>
       <r>   21.7684    0.0000 </r>
       <r>   23.4049    0.0000 </r>
       <r>   23.8343    0.0000 </r>
       <r>   23.9237    0.0000 </r>
       <r>   24.8420    0.0000 </r>
       <r>   25.2214    0.0000 </r>
       <r>   25.5601    0.0000 </r>
       <r>   26.9943    0.0000 </r>
       <r>   27.5482    0.0000 </r>
       <r>   27.9260    0.0000 </r>
       <r>   28.3177    0.0000 </r>
       <r>   29.1062    0.0000 </r>
       <r>   29.3018    0.0000 </r>
       <r>   29.6230    0.0000 </r>
       <r>   30.0210    0.0000 </r>
       <r>   30.6452    0.0000 </r>
       <r>   31.1882    0.0000 </r>
       <r>   31.4326    0.0000 </r>
       <r>   31.7771    0.0000 </r>
       <r>   32.3585    0.0000 </r>
       <r>   33.2380    0.0000 </r>
       <r>   34.6625    0.0000 </r>
       <r>   35.5403    0.0000 </r>
       <r>   35.7792    0.0000 </r>
       <r>   35.9273    0.0000 </r>
       <r>   36.3100    0.0000 </r>
       <r>   36.5129    0.0000 </r>
       <r>   37.2050    0.0000 </r>
       <r>   38.3064    0.0000 </r>
       <r>   39.0359    0.0000 </r>
       <r>   39.2265    0.0000 </r>
       <r>   41.0400    0.0000 </r>
       <r>   41.0620    0.0000 </r>
       <r>   41.4895    0.0000 </r>
       <r>   42.5084    0.0000 </r>
       <r>   43.1067    0.0000 </r>
       <r>   43.5769    0.0000 </r>
       <r>   43.6953    0.0000 </r>
       <r>   43.8743    0.0000 </r>
       <r>   44.3079    0.0000 </r>
       <r>   44.7506    0.0000 </r>
       <r>   44.8761    0.0000 </r>
       <r>   45.1906    0.0000 </r>
       <r>   45.9874    0.0000 </r>
       <r>   46.0814    0.0000 </r>
       <r>   46.8904    0.0000 </r>
       <r>   46.8943    0.0000 </r>
       <r>   47.2539    0.0000 </r>
       <r>   47.9342    0.0000 </r>
       <r>   48.0490    0.0000 </r>
       <r>   48.2825    0.0000 </r>
       <r>   49.2228    0.0000 </r>
       <r>   50.2981    0.0000 </r>
       <r>   50.3804    0.0000 </r>
       <r>   51.1487    0.0000 </r>
       <r>   51.2075    0.0000 </r>
       <r>   51.3238    0.0000 </r>
       <r>   51.6003    0.0000 </r>
       <r>   52.3168    0.0000 </r>
       <r>   52.3542    0.0000 </r>
       <r>   52.4240    0.0000 </r>
       <r>   52.9518    0.0000 </r>
       <r>   53.0496    0.0000 </r>
       <r>   53.1525    0.0000 </r>
       <r>   54.5411    0.0000 </r>
       <r>   54.9029    0.0000 </r>
       <r>   55.2392    0.0000 </r>
       <r>   55.4654    0.0000 </r>
       <r>   55.8025    0.0000 </r>
       <r>   55.9715    0.0000 </r>
       <r>   56.7189    0.0000 </r>
       <r>   56.8515    0.0000 </r>
       <r>   57.3707    0.0000 </r>
       <r>   58.9023    0.0000 </r>
       <r>   58.9574    0.0000 </r>
       <r>   59.3311    0.0000 </r>
       <r>   60.0853    0.0000 </r>
       <r>   60.5116    0.0000 </r>
       <r>   60.6117    0.0000 </r>
       <r>   61.1188    0.0000 </r>
       <r>   62.4982    0.0000 </r>
       <r>   62.5273    0.0000 </r>
       <r>   63.1530    0.0000 </r>
       <r>   63.2192    0.0000 </r>
       <r>   63.6236    0.0000 </r>
       <r>   63.8964    0.0000 </r>
       <r>   64.0211    0.0000 </r>
       <r>   64.3709    0.0000 </r>
       <r>   64.8153    0.0000 </r>
       <r>   64.8930    0.0000 </r>
       <r>   64.9899    0.0000 </r>
       <r>   65.2723    0.0000 </r>
       <r>   65.2873    0.0000 </r>
       <r>   65.7435    0.0000 </r>
       <r>   66.5627    0.0000 </r>
       <r>   67.6414    0.0000 </r>
       <r>   67.6972    0.0000 </r>
       <r>   69.1937    0.0000 </r>
       <r>   69.9390    0.0000 </r>
       <r>   70.3912    0.0000 </r>
       <r>   70.6281    0.0000 </r>
       <r>   71.2717    0.0000 </r>
       <r>   71.2910    0.0000 </r>
      </set>
      <set comment="kpoint 6">
       <r>  -18.6963    1.0000 </r>
       <r>  -12.6926    1.0000 </r>
       <r>   -8.1613    1.0000 </r>
       <r>   -6.5804    1.0000 </r>
       <r>    1.2410    0.0000 </r>
       <r>    4.6397    0.0000 </r>
       <r>    4.9704    0.0000 </r>
       <r>    5.5928    0.0000 </r>
       <r>    6.1770    0.0000 </r>
       <r>    7.8016    0.0000 </r>
       <r>    8.5644    0.0000 </r>
       <r>   11.1515    0.0000 </r>
       <r>   11.6739    0.0000 </r>
       <r>   12.3937    0.0000 </r>
       <r>   12.9948    0.0000 </r>
       <r>   13.3068    0.0000 </r>
       <r>   14.2719    0.0000 </r>
       <r>   15.0845    0.0000 </r>
       <r>   15.1314    0.0000 </r>
       <r>   16.3370    0.0000 </r>
       <r>   17.2998    0.0000 </r>
       <r>   17.7658    0.0000 </r>
       <r>   17.9798    0.0000 </r>
       <r>   19.5606    0.0000 </r>
       <r>   20.7865    0.0000 </r>
       <r>   21.0369    0.0000 </r>
       <r>   22.5147    0.0000 </r>
       <r>   23.3544    0.0000 </r>
       <r>   23.5836    0.0000 </r>
       <r>   24.6257    0.0000 </r>
       <r>   24.9203    0.0000 </r>
       <r>   25.2188    0.0000 </r>
       <r>   25.8767    0.0000 </r>
       <r>   26.8168    0.0000 </r>
       <r>   26.9677    0.0000 </r>
       <r>   27.1325    0.0000 </r>
       <r>   27.8398    0.0000 </r>
       <r>   28.4352    0.0000 </r>
       <r>   28.7721    0.0000 </r>
       <r>   29.9491    0.0000 </r>
       <r>   30.2423    0.0000 </r>
       <r>   30.6761    0.0000 </r>
       <r>   31.1040    0.0000 </r>
       <r>   31.4723    0.0000 </r>
       <r>   32.5682    0.0000 </r>
       <r>   32.7528    0.0000 </r>
       <r>   33.5111    0.0000 </r>
       <r>   33.5647    0.0000 </r>
       <r>   34.3212    0.0000 </r>
       <r>   35.5919    0.0000 </r>
       <r>   35.6792    0.0000 </r>
       <r>   36.6546    0.0000 </r>
       <r>   36.9136    0.0000 </r>
       <r>   39.0461    0.0000 </r>
       <r>   39.7332    0.0000 </r>
       <r>   40.4122    0.0000 </r>
       <r>   40.5953    0.0000 </r>
       <r>   41.0732    0.0000 </r>
       <r>   41.1783    0.0000 </r>
       <r>   41.6236    0.0000 </r>
       <r>   42.5854    0.0000 </r>
       <r>   43.3548    0.0000 </r>
       <r>   43.4009    0.0000 </r>
       <r>   45.7923    0.0000 </r>
       <r>   45.9748    0.0000 </r>
       <r>   47.0601    0.0000 </r>
       <r>   47.2667    0.0000 </r>
       <r>   47.5619    0.0000 </r>
       <r>   47.6857    0.0000 </r>
       <r>   48.0786    0.0000 </r>
       <r>   48.5336    0.0000 </r>
       <r>   49.2500    0.0000 </r>
       <r>   49.4510    0.0000 </r>
       <r>   49.7311    0.0000 </r>
       <r>   49.9037    0.0000 </r>
       <r>   50.4221    0.0000 </r>
       <r>   50.8678    0.0000 </r>
       <r>   50.8849    0.0000 </r>
       <r>   51.4422    0.0000 </r>
       <r>   51.6091    0.0000 </r>
       <r>   52.3693    0.0000 </r>
       <r>   52.4111    0.0000 </r>
       <r>   52.9478    0.0000 </r>
       <r>   53.0476    0.0000 </r>
       <r>   53.7147    0.0000 </r>
       <r>   54.0357    0.0000 </r>
       <r>   54.6553    0.0000 </r>
       <r>   54.9621    0.0000 </r>
       <r>   55.4948    0.0000 </r>
       <r>   56.2748    0.0000 </r>
       <r>   57.1603    0.0000 </r>
       <r>   57.3364    0.0000 </r>
       <r>   57.6474    0.0000 </r>
       <r>   58.1340    0.0000 </r>
       <r>   58.1580    0.0000 </r>
       <r>   58.9330    0.0000 </r>
       <r>   59.5416    0.0000 </r>
       <r>   59.5934    0.0000 </r>
       <r>   59.9759    0.0000 </r>
       <r>   60.2931    0.0000 </r>
       <r>   60.5063    0.0000 </r>
       <r>   60.6923    0.0000 </r>
       <r>   60.8609    0.0000 </r>
       <r>   61.1385    0.0000 </r>
       <r>   61.1669    0.0000 </r>
       <r>   61.2175    0.0000 </r>
       <r>   61.5642    0.0000 </r>
       <r>   61.7581    0.0000 </r>
       <r>   63.2055    0.0000 </r>
       <r>   63.3629    0.0000 </r>
       <r>   63.4230    0.0000 </r>
       <r>   63.8302    0.0000 </r>
       <r>   63.8757    0.0000 </r>
       <r>   64.2060    0.0000 </r>
       <r>   64.3380    0.0000 </r>
       <r>   64.5581    0.0000 </r>
       <r>   65.9284    0.0000 </r>
       <r>   66.2627    0.0000 </r>
       <r>   66.9394    0.0000 </r>
       <r>   66.9996    0.0000 </r>
       <r>   67.1548    0.0000 </r>
       <r>   67.9058    0.0000 </r>
       <r>   68.7330    0.0000 </r>
       <r>   69.0331    0.0000 </r>
       <r>   69.4699    0.0000 </r>
       <r>   69.8791    0.0000 </r>
       <r>   69.9510    0.0000 </r>
       <r>   70.2384    0.0000 </r>
      </set>
      <set comment="kpoint 7">
       <r>  -17.7418    1.0000 </r>
       <r>  -14.1029    1.0000 </r>
       <r>   -8.4155    1.0000 </r>
       <r>   -5.6543    1.0000 </r>
       <r>   -0.1157    0.0000 </r>
       <r>    4.7603    0.0000 </r>
       <r>    6.1035    0.0000 </r>
       <r>    7.0020    0.0000 </r>
       <r>    7.6281    0.0000 </r>
       <r>    9.1833    0.0000 </r>
       <r>    9.9595    0.0000 </r>
       <r>   10.4648    0.0000 </r>
       <r>   11.3379    0.0000 </r>
       <r>   12.3168    0.0000 </r>
       <r>   12.4691    0.0000 </r>
       <r>   13.6501    0.0000 </r>
       <r>   13.6752    0.0000 </r>
       <r>   13.9676    0.0000 </r>
       <r>   14.5085    0.0000 </r>
       <r>   15.6383    0.0000 </r>
       <r>   16.0873    0.0000 </r>
       <r>   17.6818    0.0000 </r>
       <r>   18.4732    0.0000 </r>
       <r>   18.8226    0.0000 </r>
       <r>   19.4046    0.0000 </r>
       <r>   20.1437    0.0000 </r>
       <r>   22.0926    0.0000 </r>
       <r>   23.1088    0.0000 </r>
       <r>   23.2665    0.0000 </r>
       <r>   24.3528    0.0000 </r>
       <r>   24.7019    0.0000 </r>
       <r>   24.8668    0.0000 </r>
       <r>   25.3426    0.0000 </r>
       <r>   26.3058    0.0000 </r>
       <r>   26.5918    0.0000 </r>
       <r>   26.7343    0.0000 </r>
       <r>   27.4334    0.0000 </r>
       <r>   27.8510    0.0000 </r>
       <r>   28.1824    0.0000 </r>
       <r>   29.1598    0.0000 </r>
       <r>   30.0647    0.0000 </r>
       <r>   30.2153    0.0000 </r>
       <r>   30.7157    0.0000 </r>
       <r>   30.9490    0.0000 </r>
       <r>   31.3903    0.0000 </r>
       <r>   32.5311    0.0000 </r>
       <r>   32.6045    0.0000 </r>
       <r>   33.7482    0.0000 </r>
       <r>   34.1248    0.0000 </r>
       <r>   34.9098    0.0000 </r>
       <r>   35.4006    0.0000 </r>
       <r>   36.4289    0.0000 </r>
       <r>   37.1466    0.0000 </r>
       <r>   38.8908    0.0000 </r>
       <r>   38.9908    0.0000 </r>
       <r>   39.8198    0.0000 </r>
       <r>   40.2326    0.0000 </r>
       <r>   41.2570    0.0000 </r>
       <r>   41.3084    0.0000 </r>
       <r>   43.2129    0.0000 </r>
       <r>   43.4978    0.0000 </r>
       <r>   43.8645    0.0000 </r>
       <r>   44.8852    0.0000 </r>
       <r>   45.7986    0.0000 </r>
       <r>   46.1610    0.0000 </r>
       <r>   46.6693    0.0000 </r>
       <r>   48.0551    0.0000 </r>
       <r>   48.1604    0.0000 </r>
       <r>   48.8838    0.0000 </r>
       <r>   49.5079    0.0000 </r>
       <r>   50.5139    0.0000 </r>
       <r>   50.7663    0.0000 </r>
       <r>   50.8263    0.0000 </r>
       <r>   51.3556    0.0000 </r>
       <r>   51.9359    0.0000 </r>
       <r>   52.0965    0.0000 </r>
       <r>   52.4067    0.0000 </r>
       <r>   52.7164    0.0000 </r>
       <r>   52.9529    0.0000 </r>
       <r>   53.1024    0.0000 </r>
       <r>   53.7992    0.0000 </r>
       <r>   54.0128    0.0000 </r>
       <r>   54.5791    0.0000 </r>
       <r>   54.7203    0.0000 </r>
       <r>   55.1542    0.0000 </r>
       <r>   55.2997    0.0000 </r>
       <r>   55.7807    0.0000 </r>
       <r>   56.1745    0.0000 </r>
       <r>   56.5894    0.0000 </r>
       <r>   57.0671    0.0000 </r>
       <r>   57.2174    0.0000 </r>
       <r>   57.4461    0.0000 </r>
       <r>   57.7470    0.0000 </r>
       <r>   58.1717    0.0000 </r>
       <r>   58.7896    0.0000 </r>
       <r>   59.0328    0.0000 </r>
       <r>   59.1513    0.0000 </r>
       <r>   59.2205    0.0000 </r>
       <r>   60.0850    0.0000 </r>
       <r>   60.1656    0.0000 </r>
       <r>   60.3048    0.0000 </r>
       <r>   61.7553    0.0000 </r>
       <r>   61.8474    0.0000 </r>
       <r>   62.4559    0.0000 </r>
       <r>   62.4881    0.0000 </r>
       <r>   63.1006    0.0000 </r>
       <r>   63.1440    0.0000 </r>
       <r>   63.3364    0.0000 </r>
       <r>   63.3455    0.0000 </r>
       <r>   63.6677    0.0000 </r>
       <r>   63.9270    0.0000 </r>
       <r>   64.6786    0.0000 </r>
       <r>   64.7190    0.0000 </r>
       <r>   64.8650    0.0000 </r>
       <r>   65.4965    0.0000 </r>
       <r>   65.5896    0.0000 </r>
       <r>   65.6796    0.0000 </r>
       <r>   65.7650    0.0000 </r>
       <r>   65.9779    0.0000 </r>
       <r>   67.2665    0.0000 </r>
       <r>   67.6378    0.0000 </r>
       <r>   67.9103    0.0000 </r>
       <r>   68.3870    0.0000 </r>
       <r>   68.4653    0.0000 </r>
       <r>   68.8315    0.0000 </r>
       <r>   69.0432    0.0000 </r>
       <r>   69.4851    0.0000 </r>
       <r>   69.6055    0.0000 </r>
      </set>
      <set comment="kpoint 8">
       <r>  -16.8989    1.0000 </r>
       <r>  -15.1503    1.0000 </r>
       <r>   -8.5171    1.0000 </r>
       <r>   -5.0346    1.0000 </r>
       <r>   -0.9302    0.0000 </r>
       <r>    4.6862    0.0000 </r>
       <r>    7.6949    0.0000 </r>
       <r>    8.6020    0.0000 </r>
       <r>    8.6736    0.0000 </r>
       <r>    9.3100    0.0000 </r>
       <r>    9.5642    0.0000 </r>
       <r>   10.3216    0.0000 </r>
       <r>   10.7591    0.0000 </r>
       <r>   11.5486    0.0000 </r>
       <r>   11.7382    0.0000 </r>
       <r>   12.5071    0.0000 </r>
       <r>   13.6130    0.0000 </r>
       <r>   14.5448    0.0000 </r>
       <r>   15.0678    0.0000 </r>
       <r>   15.3241    0.0000 </r>
       <r>   15.9030    0.0000 </r>
       <r>   17.1593    0.0000 </r>
       <r>   17.5434    0.0000 </r>
       <r>   19.0201    0.0000 </r>
       <r>   19.9501    0.0000 </r>
       <r>   20.1128    0.0000 </r>
       <r>   21.8148    0.0000 </r>
       <r>   22.1630    0.0000 </r>
       <r>   22.9705    0.0000 </r>
       <r>   23.9887    0.0000 </r>
       <r>   24.4436    0.0000 </r>
       <r>   24.7271    0.0000 </r>
       <r>   26.0245    0.0000 </r>
       <r>   26.0273    0.0000 </r>
       <r>   26.4414    0.0000 </r>
       <r>   27.0993    0.0000 </r>
       <r>   27.4864    0.0000 </r>
       <r>   27.8225    0.0000 </r>
       <r>   28.0952    0.0000 </r>
       <r>   28.3806    0.0000 </r>
       <r>   29.3980    0.0000 </r>
       <r>   29.6971    0.0000 </r>
       <r>   29.8808    0.0000 </r>
       <r>   30.6328    0.0000 </r>
       <r>   30.9864    0.0000 </r>
       <r>   32.0188    0.0000 </r>
       <r>   33.1395    0.0000 </r>
       <r>   33.4584    0.0000 </r>
       <r>   34.3216    0.0000 </r>
       <r>   35.1640    0.0000 </r>
       <r>   35.8510    0.0000 </r>
       <r>   36.4015    0.0000 </r>
       <r>   36.7259    0.0000 </r>
       <r>   37.1490    0.0000 </r>
       <r>   38.6234    0.0000 </r>
       <r>   39.4341    0.0000 </r>
       <r>   40.6785    0.0000 </r>
       <r>   41.3585    0.0000 </r>
       <r>   42.6372    0.0000 </r>
       <r>   43.5151    0.0000 </r>
       <r>   44.3366    0.0000 </r>
       <r>   45.0321    0.0000 </r>
       <r>   45.2331    0.0000 </r>
       <r>   45.5697    0.0000 </r>
       <r>   46.1330    0.0000 </r>
       <r>   46.3427    0.0000 </r>
       <r>   46.7403    0.0000 </r>
       <r>   48.3081    0.0000 </r>
       <r>   48.3287    0.0000 </r>
       <r>   50.2852    0.0000 </r>
       <r>   50.9491    0.0000 </r>
       <r>   51.2859    0.0000 </r>
       <r>   51.7584    0.0000 </r>
       <r>   52.5817    0.0000 </r>
       <r>   53.0795    0.0000 </r>
       <r>   53.3187    0.0000 </r>
       <r>   53.3997    0.0000 </r>
       <r>   54.0620    0.0000 </r>
       <r>   54.2811    0.0000 </r>
       <r>   54.3933    0.0000 </r>
       <r>   54.6112    0.0000 </r>
       <r>   54.7374    0.0000 </r>
       <r>   55.1829    0.0000 </r>
       <r>   55.5185    0.0000 </r>
       <r>   55.5964    0.0000 </r>
       <r>   55.8547    0.0000 </r>
       <r>   56.3530    0.0000 </r>
       <r>   56.3890    0.0000 </r>
       <r>   56.4607    0.0000 </r>
       <r>   56.6082    0.0000 </r>
       <r>   56.8900    0.0000 </r>
       <r>   57.8544    0.0000 </r>
       <r>   58.3274    0.0000 </r>
       <r>   58.8561    0.0000 </r>
       <r>   58.9414    0.0000 </r>
       <r>   59.7266    0.0000 </r>
       <r>   59.8999    0.0000 </r>
       <r>   59.9397    0.0000 </r>
       <r>   60.2687    0.0000 </r>
       <r>   60.4763    0.0000 </r>
       <r>   61.1914    0.0000 </r>
       <r>   61.3872    0.0000 </r>
       <r>   61.4971    0.0000 </r>
       <r>   62.0383    0.0000 </r>
       <r>   62.4381    0.0000 </r>
       <r>   62.6697    0.0000 </r>
       <r>   62.9971    0.0000 </r>
       <r>   63.0567    0.0000 </r>
       <r>   63.5908    0.0000 </r>
       <r>   64.1480    0.0000 </r>
       <r>   64.2089    0.0000 </r>
       <r>   64.4326    0.0000 </r>
       <r>   64.9594    0.0000 </r>
       <r>   65.4056    0.0000 </r>
       <r>   65.9321    0.0000 </r>
       <r>   66.3865    0.0000 </r>
       <r>   66.9441    0.0000 </r>
       <r>   66.9908    0.0000 </r>
       <r>   67.2924    0.0000 </r>
       <r>   67.8634    0.0000 </r>
       <r>   67.9946    0.0000 </r>
       <r>   68.1580    0.0000 </r>
       <r>   68.2950    0.0000 </r>
       <r>   68.4170    0.0000 </r>
       <r>   68.7201    0.0000 </r>
       <r>   68.7324    0.0000 </r>
       <r>   69.4086    0.0000 </r>
       <r>   69.9631    0.0000 </r>
      </set>
      <set comment="kpoint 9">
       <r>  -17.2213    1.0000 </r>
       <r>  -14.7717    1.0000 </r>
       <r>   -8.4608    1.0000 </r>
       <r>   -5.2411    1.0000 </r>
       <r>   -0.6622    0.0000 </r>
       <r>    4.6936    0.0000 </r>
       <r>    6.9568    0.0000 </r>
       <r>    7.8585    0.0000 </r>
       <r>    8.5169    0.0000 </r>
       <r>    9.4427    0.0000 </r>
       <r>    9.9697    0.0000 </r>
       <r>   10.4588    0.0000 </r>
       <r>   10.8297    0.0000 </r>
       <r>   11.1965    0.0000 </r>
       <r>   12.3951    0.0000 </r>
       <r>   13.0393    0.0000 </r>
       <r>   13.3661    0.0000 </r>
       <r>   14.4365    0.0000 </r>
       <r>   14.5177    0.0000 </r>
       <r>   15.3113    0.0000 </r>
       <r>   16.3351    0.0000 </r>
       <r>   17.4043    0.0000 </r>
       <r>   17.9805    0.0000 </r>
       <r>   18.9064    0.0000 </r>
       <r>   19.7585    0.0000 </r>
       <r>   19.9100    0.0000 </r>
       <r>   22.1807    0.0000 </r>
       <r>   22.5105    0.0000 </r>
       <r>   23.2197    0.0000 </r>
       <r>   24.2658    0.0000 </r>
       <r>   24.6055    0.0000 </r>
       <r>   24.9308    0.0000 </r>
       <r>   25.6819    0.0000 </r>
       <r>   25.9928    0.0000 </r>
       <r>   26.7109    0.0000 </r>
       <r>   27.1851    0.0000 </r>
       <r>   27.5003    0.0000 </r>
       <r>   27.5283    0.0000 </r>
       <r>   27.8648    0.0000 </r>
       <r>   28.6353    0.0000 </r>
       <r>   29.7096    0.0000 </r>
       <r>   29.8502    0.0000 </r>
       <r>   30.0548    0.0000 </r>
       <r>   30.7831    0.0000 </r>
       <r>   31.0648    0.0000 </r>
       <r>   32.2456    0.0000 </r>
       <r>   32.8755    0.0000 </r>
       <r>   33.4334    0.0000 </r>
       <r>   34.1705    0.0000 </r>
       <r>   35.1614    0.0000 </r>
       <r>   35.2450    0.0000 </r>
       <r>   36.6806    0.0000 </r>
       <r>   37.0008    0.0000 </r>
       <r>   37.9209    0.0000 </r>
       <r>   38.5902    0.0000 </r>
       <r>   39.2821    0.0000 </r>
       <r>   39.8753    0.0000 </r>
       <r>   41.3842    0.0000 </r>
       <r>   42.4269    0.0000 </r>
       <r>   43.1588    0.0000 </r>
       <r>   43.8918    0.0000 </r>
       <r>   44.6299    0.0000 </r>
       <r>   44.7492    0.0000 </r>
       <r>   45.7157    0.0000 </r>
       <r>   45.8524    0.0000 </r>
       <r>   46.9881    0.0000 </r>
       <r>   47.8985    0.0000 </r>
       <r>   48.0202    0.0000 </r>
       <r>   48.5767    0.0000 </r>
       <r>   49.1211    0.0000 </r>
       <r>   49.7482    0.0000 </r>
       <r>   49.8242    0.0000 </r>
       <r>   50.9432    0.0000 </r>
       <r>   51.4947    0.0000 </r>
       <r>   51.7457    0.0000 </r>
       <r>   51.9262    0.0000 </r>
       <r>   52.7429    0.0000 </r>
       <r>   53.1801    0.0000 </r>
       <r>   53.9424    0.0000 </r>
       <r>   54.0962    0.0000 </r>
       <r>   54.5396    0.0000 </r>
       <r>   54.7005    0.0000 </r>
       <r>   55.4878    0.0000 </r>
       <r>   55.9721    0.0000 </r>
       <r>   56.5246    0.0000 </r>
       <r>   56.5358    0.0000 </r>
       <r>   57.4960    0.0000 </r>
       <r>   57.5497    0.0000 </r>
       <r>   57.5776    0.0000 </r>
       <r>   57.7246    0.0000 </r>
       <r>   57.9366    0.0000 </r>
       <r>   58.4354    0.0000 </r>
       <r>   58.4448    0.0000 </r>
       <r>   59.3518    0.0000 </r>
       <r>   59.5258    0.0000 </r>
       <r>   60.0219    0.0000 </r>
       <r>   60.2022    0.0000 </r>
       <r>   60.2767    0.0000 </r>
       <r>   60.2771    0.0000 </r>
       <r>   60.5379    0.0000 </r>
       <r>   60.7279    0.0000 </r>
       <r>   61.0398    0.0000 </r>
       <r>   61.1642    0.0000 </r>
       <r>   61.8352    0.0000 </r>
       <r>   62.2502    0.0000 </r>
       <r>   62.7365    0.0000 </r>
       <r>   62.7817    0.0000 </r>
       <r>   63.2603    0.0000 </r>
       <r>   63.4858    0.0000 </r>
       <r>   64.0371    0.0000 </r>
       <r>   64.2437    0.0000 </r>
       <r>   64.4282    0.0000 </r>
       <r>   65.1113    0.0000 </r>
       <r>   65.1331    0.0000 </r>
       <r>   65.7102    0.0000 </r>
       <r>   66.0536    0.0000 </r>
       <r>   66.1539    0.0000 </r>
       <r>   66.2940    0.0000 </r>
       <r>   66.7118    0.0000 </r>
       <r>   66.8409    0.0000 </r>
       <r>   67.5938    0.0000 </r>
       <r>   67.7596    0.0000 </r>
       <r>   68.4108    0.0000 </r>
       <r>   68.4898    0.0000 </r>
       <r>   68.5349    0.0000 </r>
       <r>   68.7542    0.0000 </r>
       <r>   69.3823    0.0000 </r>
       <r>   69.4203    0.0000 </r>
      </set>
      <set comment="kpoint 10">
       <r>  -18.1798    1.0000 </r>
       <r>  -13.4989    1.0000 </r>
       <r>   -8.2493    1.0000 </r>
       <r>   -6.0628    1.0000 </r>
       <r>    0.4722    0.0000 </r>
       <r>    4.7769    0.0000 </r>
       <r>    5.4461    0.0000 </r>
       <r>    6.3384    0.0000 </r>
       <r>    6.9396    0.0000 </r>
       <r>    8.5378    0.0000 </r>
       <r>    9.3077    0.0000 </r>
       <r>   10.8522    0.0000 </r>
       <r>   11.6663    0.0000 </r>
       <r>   12.5274    0.0000 </r>
       <r>   12.8230    0.0000 </r>
       <r>   13.1295    0.0000 </r>
       <r>   13.5449    0.0000 </r>
       <r>   14.3790    0.0000 </r>
       <r>   15.0870    0.0000 </r>
       <r>   16.0047    0.0000 </r>
       <r>   16.5996    0.0000 </r>
       <r>   17.7942    0.0000 </r>
       <r>   18.2934    0.0000 </r>
       <r>   19.1162    0.0000 </r>
       <r>   19.9326    0.0000 </r>
       <r>   20.3156    0.0000 </r>
       <r>   22.7049    0.0000 </r>
       <r>   23.3955    0.0000 </r>
       <r>   23.7947    0.0000 </r>
       <r>   24.6882    0.0000 </r>
       <r>   25.2907    0.0000 </r>
       <r>   25.3783    0.0000 </r>
       <r>   25.6116    0.0000 </r>
       <r>   25.9777    0.0000 </r>
       <r>   26.7641    0.0000 </r>
       <r>   27.2219    0.0000 </r>
       <r>   27.6483    0.0000 </r>
[...]
       <r>   15.9419    0.0000 </r>
       <r>   16.8014    0.0000 </r>
       <r>   17.0053    0.0000 </r>
       <r>   17.8032    0.0000 </r>
       <r>   18.9481    0.0000 </r>
       <r>   20.2992    0.0000 </r>
       <r>   20.3665    0.0000 </r>
       <r>   22.2238    0.0000 </r>
       <r>   22.4753    0.0000 </r>
       <r>   22.5845    0.0000 </r>
       <r>   23.0482    0.0000 </r>
       <r>   23.8847    0.0000 </r>
       <r>   24.1812    0.0000 </r>
       <r>   24.1876    0.0000 </r>
       <r>   24.2485    0.0000 </r>
       <r>   24.6940    0.0000 </r>
       <r>   25.7203    0.0000 </r>
       <r>   26.2818    0.0000 </r>
       <r>   26.5516    0.0000 </r>
       <r>   26.6784    0.0000 </r>
       <r>   26.8430    0.0000 </r>
       <r>   28.4651    0.0000 </r>
       <r>   28.6172    0.0000 </r>
       <r>   29.7802    0.0000 </r>
       <r>   30.2128    0.0000 </r>
       <r>   30.3393    0.0000 </r>
       <r>   30.4968    0.0000 </r>
       <r>   31.0128    0.0000 </r>
       <r>   32.4759    0.0000 </r>
       <r>   33.6707    0.0000 </r>
       <r>   34.2619    0.0000 </r>
       <r>   35.8223    0.0000 </r>
       <r>   35.8319    0.0000 </r>
       <r>   35.8905    0.0000 </r>
       <r>   36.3746    0.0000 </r>
       <r>   37.3399    0.0000 </r>
       <r>   38.2630    0.0000 </r>
       <r>   40.2890    0.0000 </r>
       <r>   41.3731    0.0000 </r>
       <r>   42.1979    0.0000 </r>
       <r>   42.4279    0.0000 </r>
       <r>   42.6230    0.0000 </r>
       <r>   44.8184    0.0000 </r>
       <r>   45.4619    0.0000 </r>
       <r>   46.1265    0.0000 </r>
       <r>   46.6051    0.0000 </r>
       <r>   47.3100    0.0000 </r>
       <r>   47.5342    0.0000 </r>
       <r>   47.9793    0.0000 </r>
       <r>   49.8706    0.0000 </r>
       <r>   50.0729    0.0000 </r>
       <r>   50.3575    0.0000 </r>
       <r>   51.0157    0.0000 </r>
       <r>   51.2733    0.0000 </r>
       <r>   52.3769    0.0000 </r>
       <r>   53.5072    0.0000 </r>
       <r>   54.1299    0.0000 </r>
       <r>   54.4106    0.0000 </r>
       <r>   54.5681    0.0000 </r>
       <r>   54.8476    0.0000 </r>
       <r>   55.0738    0.0000 </r>
       <r>   55.1555    0.0000 </r>
       <r>   55.3510    0.0000 </r>
       <r>   55.5994    0.0000 </r>
       <r>   55.9013    0.0000 </r>
       <r>   56.9380    0.0000 </r>
       <r>   57.3008    0.0000 </r>
       <r>   57.4267    0.0000 </r>
       <r>   57.4877    0.0000 </r>
       <r>   57.9218    0.0000 </r>
       <r>   58.2030    0.0000 </r>
       <r>   58.3803    0.0000 </r>
       <r>   58.3900    0.0000 </r>
       <r>   58.7737    0.0000 </r>
       <r>   59.1343    0.0000 </r>
       <r>   59.2305    0.0000 </r>
       <r>   59.3841    0.0000 </r>
       <r>   59.3915    0.0000 </r>
       <r>   59.7311    0.0000 </r>
       <r>   60.5533    0.0000 </r>
       <r>   60.6604    0.0000 </r>
       <r>   61.1520    0.0000 </r>
       <r>   61.3608    0.0000 </r>
       <r>   61.3681    0.0000 </r>
       <r>   61.6146    0.0000 </r>
       <r>   61.6336    0.0000 </r>
       <r>   61.9490    0.0000 </r>
       <r>   62.0388    0.0000 </r>
       <r>   63.9067    0.0000 </r>
       <r>   64.4650    0.0000 </r>
       <r>   65.0646    0.0000 </r>
       <r>   65.4964    0.0000 </r>
       <r>   65.5883    0.0000 </r>
       <r>   65.6852    0.0000 </r>
       <r>   66.0509    0.0000 </r>
       <r>   66.1798    0.0000 </r>
       <r>   66.7327    0.0000 </r>
       <r>   67.0482    0.0000 </r>
       <r>   67.0841    0.0000 </r>
       <r>   67.2421    0.0000 </r>
       <r>   67.6285    0.0000 </r>
       <r>   68.9284    0.0000 </r>
       <r>   69.2987    0.0000 </r>
       <r>   69.6984    0.0000 </r>
       <r>   70.1294    0.0000 </r>
       <r>   70.7142    0.0000 </r>
       <r>   70.8455    0.0000 </r>
       <r>   70.9360    0.0000 </r>
       <r>   71.0460    0.0000 </r>
      </set>
     </set>
    </set>
   </array>
  </eigenvalues>
  <separator name="orbital magnetization" >
   <v name="MAGDIPOLOUT">      0.00000000      0.00000000      0.00000000</v>
  </separator>
  <dos>
   <i name="efermi">     -2.60119049 </i>
   <total>
    <array>
     <dimension dim="1">gridpoints</dimension>
     <dimension dim="2">spin</dimension>
     <field>energy</field>
     <field>total</field>
     <field>integrated</field>
     <set>
      <set comment="spin 1">
       <r>   -26.1613     0.0000     0.0000 </r>
       <r>   -25.8123     0.0000     0.0000 </r>
       <r>   -25.4633     0.0000     0.0000 </r>
       <r>   -25.1143     0.0000     0.0000 </r>
       <r>   -24.7652     0.0000     0.0000 </r>
       <r>   -24.4162     0.0000     0.0000 </r>
       <r>   -24.0672     0.0000     0.0000 </r>
       <r>   -23.7182     0.0000     0.0000 </r>
       <r>   -23.3691     0.0000     0.0000 </r>
       <r>   -23.0201     0.0000     0.0000 </r>
       <r>   -22.6711     0.0000     0.0000 </r>
       <r>   -22.3221     0.0000     0.0000 </r>
       <r>   -21.9730     0.0000     0.0000 </r>
       <r>   -21.6240     0.0000     0.0000 </r>
       <r>   -21.2750     0.1389     0.0485 </r>
       <r>   -20.9259     0.3320     0.1644 </r>
       <r>   -20.5769     0.2959     0.2677 </r>
       <r>   -20.2279     0.3514     0.3903 </r>
       <r>   -19.8789     0.3612     0.5164 </r>
       <r>   -19.5298     0.2630     0.6082 </r>
       <r>   -19.1808     0.3983     0.7472 </r>
       <r>   -18.8318     0.2796     0.8448 </r>
       <r>   -18.4828     0.4036     0.9856 </r>
       <r>   -18.1337     0.3657     1.1133 </r>
       <r>   -17.7847     0.1905     1.1798 </r>
       <r>   -17.4357     0.5846     1.3838 </r>
       <r>   -17.0867     0.2838     1.4829 </r>
       <r>   -16.7376     0.4590     1.6431 </r>
       <r>   -16.3886     0.4259     1.7917 </r>
       <r>   -16.0396     0.1898     1.8580 </r>
       <r>   -15.6906     0.2441     1.9432 </r>
       <r>   -15.3415     0.1356     1.9905 </r>
       <r>   -14.9925     0.2826     2.0891 </r>
       <r>   -14.6435     0.4147     2.2339 </r>
       <r>   -14.2944     0.3814     2.3670 </r>
       <r>   -13.9454     0.5109     2.5453 </r>
       <r>   -13.5964     0.2349     2.6273 </r>
       <r>   -13.2474     0.4816     2.7954 </r>
       <r>   -12.8983     0.0627     2.8172 </r>
       <r>   -12.5493     0.5288     3.0018 </r>
       <r>   -12.2003     0.1563     3.0564 </r>
       <r>   -11.8513     0.5716     3.2559 </r>
       <r>   -11.5022     0.2735     3.3513 </r>
       <r>   -11.1532     0.3894     3.4872 </r>
       <r>   -10.8042     0.5226     3.6696 </r>
       <r>   -10.4552     0.3728     3.7998 </r>
       <r>   -10.1061     0.4137     3.9442 </r>
       <r>    -9.7571     0.5003     4.1188 </r>
       <r>    -9.4081     0.8279     4.4077 </r>
       <r>    -9.0591     0.8133     4.6916 </r>
       <r>    -8.7100     0.9198     5.0127 </r>
       <r>    -8.3610     0.9620     5.3484 </r>
       <r>    -8.0120     0.9884     5.6934 </r>
       <r>    -7.6629     0.6499     5.9202 </r>
       <r>    -7.3139     0.7332     6.1762 </r>
       <r>    -6.9649     0.6982     6.4199 </r>
       <r>    -6.6159     0.5240     6.6027 </r>
       <r>    -6.2668     0.7411     6.8614 </r>
       <r>    -5.9178     0.5921     7.0681 </r>
       <r>    -5.5688     0.3693     7.1970 </r>
       <r>    -5.2198     0.6279     7.4161 </r>
       <r>    -4.8707     0.3542     7.5397 </r>
       <r>    -4.5217     0.4189     7.6859 </r>
       <r>    -4.1727     0.4319     7.8367 </r>
       <r>    -3.8237     0.1111     7.8755 </r>
       <r>    -3.4746     0.2400     7.9593 </r>
       <r>    -3.1256     0.0719     7.9844 </r>
       <r>    -2.7766     0.0028     7.9854 </r>
       <r>    -2.4276     0.0838     8.0146 </r>
       <r>    -2.0785     0.0029     8.0156 </r>
       <r>    -1.7295     0.0848     8.0452 </r>
       <r>    -1.3805     0.2704     8.1396 </r>
       <r>    -1.0314     0.2143     8.2144 </r>
       <r>    -0.6824     0.7465     8.4749 </r>
       <r>    -0.3334     0.2919     8.5768 </r>
       <r>     0.0156     0.2899     8.6780 </r>
       <r>     0.3647     0.3244     8.7912 </r>
       <r>     0.7137     0.3294     8.9062 </r>
       <r>     1.0627     0.2720     9.0011 </r>
       <r>     1.4117     0.4689     9.1647 </r>
       <r>     1.7608     0.5380     9.3525 </r>
       <r>     2.1098     0.6565     9.5816 </r>
       <r>     2.4588     0.7040     9.8274 </r>
       <r>     2.8078     0.9570    10.1614 </r>
       <r>     3.1569     1.3146    10.6202 </r>
       <r>     3.5059     0.8356    10.9119 </r>
       <r>     3.8549     0.9797    11.2538 </r>
       <r>     4.2039     1.3340    11.7194 </r>
       <r>     4.5530     1.2297    12.1486 </r>
       <r>     4.9020     1.8729    12.8023 </r>
       <r>     5.2510     2.1193    13.5420 </r>
       <r>     5.6001     2.3624    14.3665 </r>
       <r>     5.9491     1.7752    14.9861 </r>
       <r>     6.2981     2.0105    15.6878 </r>
       <r>     6.6471     1.5202    16.2184 </r>
       <r>     6.9962     1.8956    16.8800 </r>
       <r>     7.3452     1.7777    17.5005 </r>
       <r>     7.6942     1.7460    18.1099 </r>
       <r>     8.0432     2.4623    18.9693 </r>
       <r>     8.3923     1.4784    19.4853 </r>
       <r>     8.7413     2.3663    20.3112 </r>
       <r>     9.0903     2.3854    21.1438 </r>
       <r>     9.4393     2.3454    21.9623 </r>
       <r>     9.7884     2.0418    22.6750 </r>
       <r>    10.1374     2.2307    23.4536 </r>
       <r>    10.4864     1.9896    24.1480 </r>
       <r>    10.8354     2.6421    25.0701 </r>
       <r>    11.1845     2.3953    25.9062 </r>
       <r>    11.5335     2.3472    26.7254 </r>
       <r>    11.8825     1.6934    27.3164 </r>
       <r>    12.2316     1.3595    27.7909 </r>
       <r>    12.5806     1.8262    28.4283 </r>
       <r>    12.9296     2.6008    29.3361 </r>
       <r>    13.2786     2.3237    30.1471 </r>
       <r>    13.6277     2.6770    31.0815 </r>
       <r>    13.9767     2.9199    32.1006 </r>
       <r>    14.3257     2.5906    33.0048 </r>
       <r>    14.6747     1.9864    33.6981 </r>
       <r>    15.0238     1.8811    34.3546 </r>
       <r>    15.3728     3.1071    35.4391 </r>
       <r>    15.7218     1.9110    36.1060 </r>
       <r>    16.0708     2.6841    37.0429 </r>
       <r>    16.4199     2.4585    37.9009 </r>
       <r>    16.7689     2.4189    38.7452 </r>
       <r>    17.1179     2.6112    39.6565 </r>
       <r>    17.4669     2.6691    40.5881 </r>
       <r>    17.8160     2.9893    41.6315 </r>
       <r>    18.1650     2.1881    42.3952 </r>
       <r>    18.5140     3.0739    43.4681 </r>
       <r>    18.8631     3.0665    44.5383 </r>
       <r>    19.2121     2.5217    45.4185 </r>
       <r>    19.5611     2.7672    46.3843 </r>
       <r>    19.9101     3.1528    47.4847 </r>
       <r>    20.2592     3.2753    48.6278 </r>
       <r>    20.6082     2.7901    49.6017 </r>
       <r>    20.9572     2.4396    50.4531 </r>
       <r>    21.3062     2.8429    51.4454 </r>
       <r>    21.6553     3.2854    52.5921 </r>
       <r>    22.0043     3.0859    53.6691 </r>
       <r>    22.3533     3.2351    54.7983 </r>
       <r>    22.7023     3.0547    55.8644 </r>
       <r>    23.0514     2.8767    56.8685 </r>
       <r>    23.4004     3.5604    58.1112 </r>
       <r>    23.7494     2.3590    58.9345 </r>
       <r>    24.0984     2.5790    59.8347 </r>
       <r>    24.4475     3.3134    60.9911 </r>
       <r>    24.7965     2.8690    61.9925 </r>
       <r>    25.1455     2.7747    62.9609 </r>
       <r>    25.4946     2.6811    63.8967 </r>
       <r>    25.8436     3.1999    65.0135 </r>
       <r>    26.1926     2.8244    65.9993 </r>
       <r>    26.5416     2.8446    66.9922 </r>
       <r>    26.8907     2.6408    67.9139 </r>
       <r>    27.2397     3.3747    69.0917 </r>
       <r>    27.5887     2.8208    70.0763 </r>
       <r>    27.9377     3.3991    71.2626 </r>
       <r>    28.2868     3.2561    72.3991 </r>
       <r>    28.6358     2.9097    73.4147 </r>
       <r>    28.9848     2.8999    74.4268 </r>
       <r>    29.3338     3.0248    75.4825 </r>
       <r>    29.6829     3.2167    76.6052 </r>
       <r>    30.0319     3.5847    77.8564 </r>
       <r>    30.3809     3.1325    78.9497 </r>
       <r>    30.7299     3.7358    80.2536 </r>
       <r>    31.0790     4.0576    81.6698 </r>
       <r>    31.4280     2.8925    82.6794 </r>
       <r>    31.7770     2.8035    83.6579 </r>
       <r>    32.1261     3.2507    84.7925 </r>
       <r>    32.4751     3.0773    85.8665 </r>
       <r>    32.8241     3.5925    87.1204 </r>
       <r>    33.1731     2.3030    87.9242 </r>
       <r>    33.5222     4.5763    89.5215 </r>
       <r>    33.8712     3.9253    90.8915 </r>
       <r>    34.2202     3.6722    92.1732 </r>
       <r>    34.5692     3.8741    93.5254 </r>
       <r>    34.9183     3.0796    94.6003 </r>
       <r>    35.2673     2.9991    95.6470 </r>
       <r>    35.6163     4.1729    97.1035 </r>
       <r>    35.9653     3.4056    98.2921 </r>
       <r>    36.3144     3.9499    99.6708 </r>
       <r>    36.6634     2.8392   100.6617 </r>
       <r>    37.0124     3.2283   101.7885 </r>
       <r>    37.3615     4.5809   103.3873 </r>
       <r>    37.7105     4.2048   104.8549 </r>
       <r>    38.0595     3.8284   106.1911 </r>
       <r>    38.4085     3.9392   107.5660 </r>
       <r>    38.7576     3.5738   108.8134 </r>
       <r>    39.1066     4.0117   110.2136 </r>
       <r>    39.4556     4.5303   111.7948 </r>
       <r>    39.8046     3.8431   113.1361 </r>
       <r>    40.1537     4.2831   114.6310 </r>
       <r>    40.5027     3.7292   115.9326 </r>
       <r>    40.8517     3.8778   117.2861 </r>
       <r>    41.2007     3.6087   118.5456 </r>
       <r>    41.5498     4.4281   120.0911 </r>
       <r>    41.8988     4.5870   121.6921 </r>
       <r>    42.2478     3.5791   122.9413 </r>
       <r>    42.5968     4.1245   124.3809 </r>
       <r>    42.9459     2.8676   125.3818 </r>
       <r>    43.2949     3.7583   126.6935 </r>
       <r>    43.6439     4.4847   128.2588 </r>
       <r>    43.9930     4.6661   129.8874 </r>
       <r>    44.3420     3.9608   131.2698 </r>
       <r>    44.6910     3.8936   132.6288 </r>
       <r>    45.0400     4.0036   134.0261 </r>
       <r>    45.3891     3.3668   135.2012 </r>
       <r>    45.7381     3.9700   136.5869 </r>
       <r>    46.0871     4.3165   138.0935 </r>
       <r>    46.4361     4.5826   139.6929 </r>
       <r>    46.7852     3.7830   141.0133 </r>
       <r>    47.1342     3.9148   142.3797 </r>
       <r>    47.4832     3.3921   143.5636 </r>
       <r>    47.8322     4.1047   144.9963 </r>
       <r>    48.1813     3.8078   146.3253 </r>
       <r>    48.5303     4.7022   147.9664 </r>
       <r>    48.8793     3.6473   149.2394 </r>
       <r>    49.2283     4.8810   150.9431 </r>
       <r>    49.5774     4.4931   152.5113 </r>
       <r>    49.9264     4.2323   153.9884 </r>
       <r>    50.2754     3.7779   155.3070 </r>
       <r>    50.6245     4.3623   156.8296 </r>
       <r>    50.9735     3.8176   158.1621 </r>
       <r>    51.3225     5.1222   159.9498 </r>
       <r>    51.6715     4.5046   161.5221 </r>
       <r>    52.0206     4.4499   163.0752 </r>
       <r>    52.3696     4.6489   164.6978 </r>
       <r>    52.7186     4.1958   166.1622 </r>
       <r>    53.0676     4.6466   167.7840 </r>
       <r>    53.4167     4.3262   169.2940 </r>
       <r>    53.7657     4.5490   170.8817 </r>
       <r>    54.1147     4.6901   172.5187 </r>
       <r>    54.4637     4.5074   174.0919 </r>
       <r>    54.8128     4.7243   175.7408 </r>
       <r>    55.1618     3.5840   176.9917 </r>
       <r>    55.5108     4.1693   178.4469 </r>
       <r>    55.8598     5.1796   180.2547 </r>
       <r>    56.2089     4.8603   181.9510 </r>
       <r>    56.5579     4.5334   183.5333 </r>
       <r>    56.9069     4.5326   185.1153 </r>
       <r>    57.2560     4.1069   186.5487 </r>
       <r>    57.6050     4.5241   188.1278 </r>
       <r>    57.9540     4.6481   189.7501 </r>
       <r>    58.3030     4.6062   191.3578 </r>
       <r>    58.6521     4.6499   192.9807 </r>
       <r>    59.0011     4.2908   194.4783 </r>
       <r>    59.3501     4.8195   196.1604 </r>
       <r>    59.6991     4.6768   197.7928 </r>
       <r>    60.0482     4.5093   199.3666 </r>
       <r>    60.3972     4.6540   200.9910 </r>
       <r>    60.7462     5.0276   202.7458 </r>
       <r>    61.0952     4.4132   204.2861 </r>
       <r>    61.4443     5.0050   206.0330 </r>
       <r>    61.7933     4.9317   207.7543 </r>
       <r>    62.1423     4.2764   209.2468 </r>
       <r>    62.4913     4.8716   210.9472 </r>
       <r>    62.8404     4.7574   212.6076 </r>
       <r>    63.1894     5.3287   214.4675 </r>
       <r>    63.5384     5.3415   216.3318 </r>
       <r>    63.8875     3.8289   217.6682 </r>
       <r>    64.2365     4.9148   219.3836 </r>
       <r>    64.5855     4.4497   220.9366 </r>
       <r>    64.9345     5.3545   222.8055 </r>
       <r>    65.2836     4.6880   224.4417 </r>
       <r>    65.6326     5.1727   226.2472 </r>
       <r>    65.9816     5.8149   228.2767 </r>
       <r>    66.3306     4.6894   229.9134 </r>
       <r>    66.6797     4.8472   231.6053 </r>
       <r>    67.0287     4.5894   233.2071 </r>
       <r>    67.3777     4.1752   234.6643 </r>
       <r>    67.7267     5.5417   236.5985 </r>
       <r>    68.0758     4.7123   238.2433 </r>
       <r>    68.4248     4.2572   239.7291 </r>
       <r>    68.7738     5.4985   241.6483 </r>
       <r>    69.1228     5.1574   243.4483 </r>
       <r>    69.4719     4.8395   245.1374 </r>
       <r>    69.8209     4.7414   246.7923 </r>
       <r>    70.1699     4.0566   248.2082 </r>
       <r>    70.5190     4.4698   249.7682 </r>
       <r>    70.8680     3.4562   250.9746 </r>
       <r>    71.2170     3.2150   252.0967 </r>
       <r>    71.5660     2.6047   253.0058 </r>
       <r>    71.9151     2.5646   253.9009 </r>
       <r>    72.2641     2.2646   254.6913 </r>
       <r>    72.6131     1.6853   255.2795 </r>
       <r>    72.9621     1.2805   255.7264 </r>
       <r>    73.3112     0.4696   255.8903 </r>
       <r>    73.6602     0.1840   255.9545 </r>
       <r>    74.0092     0.1302   256.0000 </r>
       <r>    74.3582     0.0001   256.0000 </r>
       <r>    74.7073     0.0000   256.0000 </r>
       <r>    75.0563     0.0000   256.0000 </r>
       <r>    75.4053     0.0000   256.0000 </r>
       <r>    75.7543     0.0000   256.0000 </r>
       <r>    76.1034     0.0000   256.0000 </r>
       <r>    76.4524     0.0000   256.0000 </r>
       <r>    76.8014     0.0000   256.0000 </r>
       <r>    77.1505     0.0000   256.0000 </r>
       <r>    77.4995     0.0000   256.0000 </r>
       <r>    77.8485     0.0000   256.0000 </r>
       <r>    78.1975     0.0000   256.0000 </r>
       <r>    78.5466     0.0000   256.0000 </r>
      </set>
     </set>
    </array>
   </total>
  </dos>
 </calculation>
 <structure name="finalpos" >
  <crystal>
   <varray name="basis" >
    <v>       1.30825933      -2.13771446       0.00000000 </v>
    <v>       1.30825933       2.13771446       0.00000000 </v>
    <v>       0.00000000       0.00000000      15.52239374 </v>
   </varray>
   <i name="volume">     86.82248763 </i>
   <varray name="rec_basis" >
    <v>       0.38218722      -0.23389466       0.00000000 </v>
    <v>       0.38218722       0.23389466       0.00000000 </v>
    <v>       0.00000000       0.00000000       0.06442305 </v>
   </varray>
  </crystal>
  <varray name="positions" >
   <v>       0.66740981       0.33259019       0.50000000 </v>
   <v>       0.33259019       0.66740981       0.50000000 </v>
  </varray>
 </structure>
</modeling>
