unknown system                          
           1
     1.308259   -2.137714    0.000000
     1.308259    2.137714    0.000000
     0.000000    0.000000   15.522394
   C 
   2
Direct configuration=     1
   0.66666762  0.33333238  0.50000000
   0.33333238  0.66666762  0.50000000
Direct configuration=     2
   0.66730445  0.33269555  0.50000000
   0.33269555  0.66730445  0.50000000
Direct configuration=     3
   0.66740981  0.33259019  0.50000000
   0.33259019  0.66740981  0.50000000
