    3    3   50    1
  0.8308640E+01  0.2941947E-09  0.3010446E-09  0.3225690E-09  0.5000000E-15
  1.000000000000000E-004
  CAR 
 unknown system                          
     10    657     12
 
  0.0000000E+00  0.0000000E+00  0.0000000E+00  0.2441406E-03
    1       -7.065313   1.000000
    2        3.841920   1.000000
    3        4.164300   1.000000
    4        4.235439   1.000000
    5        4.405131   1.000000
    6        8.460189   0.000000
    7        8.543720   0.000000
    8       10.188830   0.000000
    9       10.360461   0.000000
   10       12.359858   0.000000
   11       12.781407   0.000000
   12       14.313043   0.000000
 
  0.6250000E-01 -0.1387779E-16  0.0000000E+00  0.9765625E-03
    1       -6.988825   1.000000
    2        3.773471   1.000000
    3        4.073106   1.000000
    4        4.098420   1.000000
    5        4.444870   1.000000
    6        8.451104   0.000000
    7        8.665426   0.000000
    8        9.942224   0.000000
    9       10.028160   0.000000
   10       12.794223   0.000000
   11       13.098075   0.000000
   12       14.578529   0.000000
 
  0.1250000E+00 -0.2775558E-16  0.0000000E+00  0.9765625E-03
    1       -6.761346   1.000000
    2        3.297789   1.000000
    3        3.897493   1.000000
    4        3.932431   1.000000
    5        4.558975   1.000000
    6        8.384944   0.000000
    7        9.028339   0.000000
    8        9.422197   0.000000
    9        9.526585   0.000000
   10       13.376863   0.000000
   11       14.065944   0.000000
   12       15.357780   0.000000
 
  0.1875000E+00 -0.4163336E-16  0.0000000E+00  0.9765625E-03
    1       -6.388676   1.000000
    2        2.452207   1.000000
    3        3.729423   1.000000
    4        3.791179   1.000000
    5        4.680886   1.000000
    6        8.282570   0.000000
    7        8.927169   0.000000
    8        9.231367   0.000000
    9        9.512873   0.000000
   10       13.755367   0.000000
   11       14.859238   0.000000
   12       15.346192   0.000000
 
  0.2500000E+00 -0.5551115E-16  0.0000000E+00  0.9765625E-03
    1       -5.879822   1.000000
    2        1.453887   1.000000
    3        3.540283   1.000000
    4        3.656312   1.000000
    5        4.712542   1.000000
    6        8.164478   0.000000
    7        8.726588   0.000000
    8        9.130485   0.000000
    9        9.965445   0.000000
   10       13.995574   0.000000
   11       14.198100   0.000000
   12       15.828894   0.000000
 
  0.3125000E+00 -0.2775558E-16  0.0000000E+00  0.9765625E-03
    1       -5.246123   1.000000
    2        0.394264   1.000000
    3        3.391937   1.000000
    4        3.503002   1.000000
    5        4.608981   1.000000
    6        8.049938   0.000000
    7        8.870190   0.000000
    8        9.197243   0.000000
    9       10.215827   0.000000
   10       13.883533   0.000000
   11       14.124808   0.000000
   12       15.628932   0.000000
 
  0.3750000E+00 -0.8326673E-16  0.0000000E+00  0.9765625E-03
    1       -4.500725   1.000000
    2       -0.674093   1.000000
    3        3.292101   1.000000
    4        3.363043   1.000000
    5        4.434834   1.000000
    6        7.955790   0.000000
    7        9.184714   0.000000
    8        9.413682   0.000000
    9       10.208003   0.000000
   10       13.950455   0.000000
   11       14.154975   0.000000
   12       15.353716   0.000000
 
  0.4375000E+00 -0.5551115E-16  0.0000000E+00  0.9765625E-03
    1       -3.659567   1.000000
    2       -1.715310   1.000000
    3        3.237088   1.000000
    4        3.266384   1.000000
    5        4.288597   1.000000
    6        7.894502   0.000000
    7        9.370896   0.000000
    8        9.770421   0.000000
    9       10.092006   0.000000
   10       14.097285   0.000000
   11       14.175412   0.000000
   12       15.114219   0.000000
 
  0.5000000E+00 -0.1110223E-15  0.0000000E+00  0.4882812E-03
    1       -2.852123   1.000000
    2       -2.590403   1.000000
    3        3.219837   1.000000
    4        3.232068   1.000000
    5        4.233273   1.000000
    6        7.873311   0.000000
    7        9.429400   0.000000
    8        9.945668   0.000000
    9       10.034019   0.000000
   10       14.045128   0.000000
   11       14.288017   0.000000
   12       15.026507   0.000000
 
  0.0000000E+00  0.6250000E-01  0.0000000E+00  0.4882812E-03
    1       -6.992301   1.000000
    2        3.620673   1.000000
    3        4.100420   1.000000
    4        4.226931   1.000000
    5        4.449512   1.000000
    6        8.522650   0.000000
    7        8.583959   0.000000
    8        9.870669   0.000000
    9       10.114939   0.000000
   10       12.771266   0.000000
   11       13.227819   0.000000
   12       14.478731   0.000000
 
  0.6250000E-01  0.6250000E-01  0.0000000E+00  0.9765625E-03
    1       -6.843719   1.000000
    2        3.318799   1.000000
    3        3.987420   1.000000
    4        4.044184   1.000000
    5        4.574274   1.000000
    6        8.423998   0.000000
    7        8.876987   0.000000
    8        9.519903   0.000000
    9        9.719767   0.000000
   10       13.348894   0.000000
   11       13.832227   0.000000
   12       15.716097   0.000000
 
  0.1250000E+00  0.6250000E-01  0.0000000E+00  0.9765625E-03
    1       -6.546900   1.000000
    2        2.762237   1.000000
    3        3.716871   1.000000
    4        3.811376   1.000000
    5        4.781719   1.000000
    6        8.274083   0.000000
    7        9.086653   0.000000
    8        9.323432   0.000000
    9        9.354915   0.000000
   10       13.917017   0.000000
   11       15.036163   0.000000
   12       15.566011   0.000000
 
  0.1875000E+00  0.6250000E-01  0.0000000E+00  0.9765625E-03
    1       -6.109167   1.000000
    2        1.937958   1.000000
    3        3.405899   1.000000
    4        3.629955   1.000000
    5        4.974969   1.000000
    6        8.090029   0.000000
    7        8.710027   0.000000
    8        9.191771   0.000000
    9        9.894186   0.000000
   10       14.144612   0.000000
   11       14.482632   0.000000
   12       16.249234   0.000000
 
  0.2500000E+00  0.6250000E-01  0.0000000E+00  0.9765625E-03
    1       -5.540672   1.000000
    2        0.957841   1.000000
    3        3.127319   1.000000
    4        3.479484   1.000000
    5        5.055883   1.000000
    6        7.891795   0.000000
    7        8.620405   0.000000
    8        9.242412   0.000000
    9       10.341047   0.000000
   10       13.997288   0.000000
   11       14.280642   0.000000
   12       15.759359   0.000000
 
  0.3125000E+00  0.6250000E-01  0.0000000E+00  0.9765625E-03
    1       -4.853669   1.000000
    2       -0.085233   1.000000
    3        2.896110   1.000000
    4        3.373459   1.000000
    5        4.995551   1.000000
    6        7.706951   0.000000
    7        8.841753   0.000000
    8        9.394626   0.000000
    9       10.548601   0.000000
   10       13.883645   0.000000
   11       14.310181   0.000000
   12       15.590840   0.000000
 
  0.3750000E+00  0.6250000E-01  0.0000000E+00  0.9765625E-03
    1       -4.062302   1.000000
    2       -1.133772   1.000000
    3        2.736370   1.000000
    4        3.309315   1.000000
    5        4.871746   1.000000
    6        7.567787   0.000000
    7        9.191973   0.000000
    8        9.583069   0.000000
    9       10.534979   0.000000
   10       14.060527   0.000000
   11       14.263244   0.000000
   12       15.390820   0.000000
 
  0.4375000E+00  0.6250000E-01  0.0000000E+00  0.9765625E-03
    1       -3.186916   1.000000
    2       -2.145661   1.000000
    3        2.667263   1.000000
    4        3.277300   1.000000
    5        4.774966   1.000000
    6        7.504337   0.000000
    7        9.358995   0.000000
    8        9.805649   0.000000
    9       10.463950   0.000000
   10       14.203564   0.000000
   11       14.247151   0.000000
   12       15.247711   0.000000
 
  0.5000000E+00  0.6250000E-01  0.0000000E+00  0.9765625E-03
    1       -3.139395   1.000000
    2       -2.199564   1.000000
    3        2.697763   1.000000
    4        3.270360   1.000000
    5        4.751568   1.000000
    6        7.531924   0.000000
    7        9.246717   0.000000
    8        9.921033   0.000000
    9       10.448969   0.000000
   10       14.221870   0.000000
   11       14.223685   0.000000
   12       15.223380   0.000000
 
 -0.4375000E+00  0.6250000E-01  0.0000000E+00  0.9765625E-03
    1       -4.020045   1.000000
    2       -1.194030   1.000000
    3        2.824657   1.000000
    4        3.290719   1.000000
    5        4.803079   1.000000
    6        7.641820   0.000000
    7        8.956217   0.000000
    8        9.822029   0.000000
    9       10.499775   0.000000
   10       13.992585   0.000000
   11       14.296068   0.000000
   12       15.344644   0.000000
 
 -0.3750000E+00  0.6250000E-01  0.0000000E+00  0.9765625E-03
    1       -4.817726   1.000000
    2       -0.146269   1.000000
    3        3.030898   1.000000
    4        3.348691   1.000000
    5        4.887460   1.000000
    6        7.805384   0.000000
    7        8.633463   0.000000
    8        9.596993   0.000000
    9       10.516219   0.000000
   10       13.776843   0.000000
   11       14.316124   0.000000
   12       15.567813   0.000000
 
 -0.3125000E+00  0.6250000E-01  0.0000000E+00  0.9765625E-03
    1       -5.510970   1.000000
    2        0.907629   1.000000
    3        3.283796   1.000000
    4        3.454564   1.000000
    5        4.922410   1.000000
    6        7.988689   0.000000
    7        8.465776   0.000000
    8        9.376510   0.000000
    9       10.326264   0.000000
   10       13.868396   0.000000
   11       14.243511   0.000000
   12       15.761304   0.000000
 
 -0.2500000E+00  0.6250000E-01  0.0000000E+00  0.9765625E-03
    1       -6.085728   1.000000
    2        1.926290   1.000000
    3        3.535877   1.000000
    4        3.609494   1.000000
    5        4.838813   1.000000
    6        8.163408   0.000000
    7        8.592125   0.000000
    8        9.273866   0.000000
    9        9.896181   0.000000
   10       14.074880   0.000000
   11       14.359834   0.000000
   12       15.535474   0.000000
 
 -0.1875000E+00  0.6250000E-01  0.0000000E+00  0.9765625E-03
    1       -6.529875   1.000000
    2        2.849674   1.000000
    3        3.733329   1.000000
    4        3.797677   1.000000
    5        4.665433   1.000000
    6        8.307491   0.000000
    7        9.001681   0.000000
    8        9.368096   0.000000
    9        9.376246   0.000000
   10       13.800813   0.000000
   11       14.411967   0.000000
   12       16.063888   0.000000
 
 -0.1250000E+00  0.6250000E-01  0.0000000E+00  0.4882812E-03
    1       -6.833364   1.000000
    2        3.584736   1.000000
    3        3.835186   1.000000
    4        3.980380   1.000000
    5        4.505702   1.000000
    6        8.402791   0.000000
    7        8.929437   0.000000
    8        9.550653   0.000000
    9        9.658012   0.000000
   10       13.422444   0.000000
   11       13.424604   0.000000
   12       15.217989   0.000000
 
  0.0000000E+00  0.1250000E+00  0.0000000E+00  0.4882812E-03
    1       -6.775061   1.000000
    2        3.018360   1.000000
    3        3.937103   1.000000
    4        4.195236   1.000000
    5        4.563034   1.000000
    6        8.463252   0.000000
    7        8.914605   0.000000
    8        9.312296   0.000000
    9        9.689658   0.000000
   10       13.531578   0.000000
   11       14.260002   0.000000
   12       15.025116   0.000000
 
  0.6250000E-01  0.1250000E+00  0.0000000E+00  0.9765625E-03
    1       -6.557021   1.000000
    2        2.591019   1.000000
    3        3.811013   1.000000
    4        3.914271   1.000000
    5        4.775903   1.000000
    6        8.323301   0.000000
    7        9.025146   0.000000
    8        9.284880   0.000000
    9        9.421582   0.000000
   10       14.078027   0.000000
   11       14.920661   0.000000
   12       15.350336   0.000000
 
  0.1250000E+00  0.1250000E+00  0.0000000E+00  0.9765625E-03
    1       -6.194873   1.000000
    2        2.054748   1.000000
    3        3.345256   1.000000
    4        3.665378   1.000000
    5        5.111069   1.000000
    6        8.053835   0.000000
    7        8.662616   0.000000
    8        9.288726   0.000000
    9        9.861755   0.000000
   10       14.615768   0.000000
   11       14.620747   0.000000
   12       15.746226   0.000000
 
  0.1875000E+00  0.1250000E+00  0.0000000E+00  0.9765625E-03
    1       -5.696987   1.000000
    2        1.362048   1.000000
    3        2.742129   1.000000
    4        3.545275   1.000000
    5        5.436820   1.000000
    6        7.718221   0.000000
    7        8.350453   0.000000
    8        9.374857   0.000000
    9       10.489607   0.000000
   10       14.087415   0.000000
   11       14.767141   0.000000
   12       15.977336   0.000000
 
  0.2500000E+00  0.1250000E+00  0.0000000E+00  0.9765625E-03
    1       -5.074363   1.000000
    2        0.488960   1.000000
    3        2.270677   1.000000
    4        3.471253   1.000000
    5        5.634397   1.000000
    6        7.365058   0.000000
    7        8.303719   0.000000
    8        9.543291   0.000000
    9       11.004030   0.000000
   10       13.805601   0.000000
   11       14.740985   0.000000
   12       15.880088   0.000000
 
  0.3125000E+00  0.1250000E+00  0.0000000E+00  0.9765625E-03
    1       -4.340086   1.000000
    2       -0.494036   1.000000
    3        1.961062   1.000000
    4        3.440360   1.000000
    5        5.654061   1.000000
    6        7.053101   0.000000
    7        8.573053   0.000000
    8        9.665324   0.000000
    9       11.258059   0.000000
   10       13.869410   0.000000
   11       14.665622   0.000000
   12       15.869111   0.000000
 
  0.3750000E+00  0.1250000E+00  0.0000000E+00  0.9765625E-03
    1       -3.509570   1.000000
    2       -1.502771   1.000000
    3        1.796105   1.000000
    4        3.432191   1.000000
    5        5.589625   1.000000
    6        6.846946   0.000000
    7        8.972879   0.000000
    8        9.666281   0.000000
    9       11.298475   0.000000
   10       14.110273   0.000000
   11       14.616604   0.000000
   12       15.818323   0.000000
 
  0.4375000E+00  0.1250000E+00  0.0000000E+00  0.9765625E-03
    1       -2.636476   1.000000
    2       -2.447662   1.000000
    3        1.765970   1.000000
    4        3.422884   1.000000
    5        5.543177   1.000000
    6        6.798042   0.000031
    7        9.078494   0.000000
    8        9.727141   0.000000
    9       11.282614   0.000000
   10       14.208151   0.000000
   11       14.620923   0.000000
   12       15.767944   0.000000
 
  0.5000000E+00  0.1250000E+00  0.0000000E+00  0.9765625E-03
    1       -3.419052   1.000000
    2       -1.618581   1.000000
    3        1.866382   1.000000
    4        3.405648   1.000000
    5        5.548660   1.000000
    6        6.919478   0.000000
    7        8.740865   0.000000
    8        9.902505   0.000000
    9       11.281703   0.000000
   10       14.017002   0.000000
   11       14.660908   0.000000
   12       15.763112   0.000000
 
 -0.4375000E+00  0.1250000E+00  0.0000000E+00  0.9765625E-03
    1       -4.262407   1.000000
    2       -0.615018   1.000000
    3        2.092306   1.000000
    4        3.397925   1.000000
    5        5.571275   1.000000
    6        7.176826   0.000000
    7        8.332653   0.000000
    8        9.900500   0.000000
    9       11.247385   0.000000
   10       13.692367   0.000000
   11       14.708809   0.000000
   12       15.809933   0.000000
 
 -0.3750000E+00  0.1250000E+00  0.0000000E+00  0.9765625E-03
    1       -5.009283   1.000000
    2        0.386311   1.000000
    3        2.433568   1.000000
    4        3.426244   1.000000
    5        5.511117   1.000000
    6        7.505992   0.000000
    7        8.098876   0.000000
    8        9.721860   0.000000
    9       11.017054   0.000000
   10       13.571895   0.000000
   11       14.725366   0.000000
   12       15.904695   0.000000
 
 -0.3125000E+00  0.1250000E+00  0.0000000E+00  0.9765625E-03
    1       -5.644320   1.000000
    2        1.334621   1.000000
    3        2.867709   1.000000
    4        3.507558   1.000000
    5        5.286674   1.000000
    6        7.838887   0.000000
    7        8.183007   0.000000
    8        9.488241   0.000000
    9       10.519614   0.000000
   10       13.857538   0.000000
   11       15.291448   0.000000
   12       16.086619   0.000000
 
 -0.2500000E+00  0.1250000E+00  0.0000000E+00  0.4882812E-03
    1       -6.154765   1.000000
    2        2.172212   1.000000
    3        3.340574   1.000000
    4        3.639801   1.000000
    5        4.958558   1.000000
    6        8.119678   0.000000
    7        8.536967   0.000000
    8        9.337920   0.000000
    9        9.913545   0.000000
   10       14.406251   0.000000
   11       14.423099   0.000000
   12       14.878759   0.000000
 
  0.0000000E+00  0.1875000E+00  0.0000000E+00  0.4882812E-03
    1       -6.418827   1.000000
    2        2.164645   1.000000
    3        3.732107   1.000000
    4        4.128682   1.000000
    5        4.685269   1.000000
    6        8.375848   0.000000
    7        8.878613   0.000000
    8        9.354032   0.000000
    9        9.367186   0.000000
   10       14.124871   0.000000
   11       15.511173   0.000000
   12       15.892005   0.000000
 
  0.6250000E-01  0.1875000E+00  0.0000000E+00  0.9765625E-03
    1       -6.135342   1.000000
    2        1.683337   1.000000
    3        3.622690   1.000000
    4        3.720699   1.000000
    5        4.973736   1.000000
    6        8.176685   0.000000
    7        8.676064   0.000000
    8        9.287930   0.000000
    9        9.768580   0.000000
   10       14.526349   0.000000
   11       14.563766   0.000000
   12       15.896140   0.000000
 
  0.1250000E+00  0.1875000E+00  0.0000000E+00  0.9765625E-03
    1       -5.712789   1.000000
    2        1.195742   1.000000
    3        2.938302   1.000000
    4        3.536428   1.000000
    5        5.449196   1.000000
    6        7.760470   0.000000
    7        8.340963   0.000000
    8        9.407091   0.000000
    9       10.436502   0.000000
   10       14.117494   0.000000
   11       15.013450   0.000000
   12       15.988026   0.000000
 
  0.1875000E+00  0.1875000E+00  0.0000000E+00  0.9765625E-03
    1       -5.160301   1.000000
    2        0.682736   1.000000
    3        2.072733   1.000000
    4        3.507341   1.000000
    5        5.939784   1.000000
    6        7.248149   0.000000
    7        8.038978   0.000000
    8        9.613108   0.000000
    9       11.179630   0.000000
   10       13.770663   0.000000
   11       15.098111   0.000000
   12       16.606124   0.000000
 
  0.2500000E+00  0.1875000E+00  0.0000000E+00  0.9765625E-03
    1       -4.489658   1.000000
    2        0.035189   1.000000
    3        1.364024   1.000000
    4        3.542607   1.000000
    5        6.290345   1.000000
    6        6.732237   0.016164
    7        7.996690   0.000000
    8        9.733238   0.000000
    9       11.807329   0.000000
   10       13.651465   0.000000
   11       15.070323   0.000000
   12       16.478694   0.000000
 
  0.3125000E+00  0.1875000E+00  0.0000000E+00  0.9765625E-03
    1       -3.715495   1.000000
    2       -0.820490   1.000000
    3        0.966593   1.000000
    4        3.617613   1.000000
    5        6.306813   1.000000
    6        6.380133   1.000000
    7        8.328642   0.000000
    8        9.653825   0.000000
    9       12.119326   0.000000
   10       13.848343   0.000000
   11       15.108684   0.000000
   12       16.557980   0.000000
 
  0.3750000E+00  0.1875000E+00  0.0000000E+00  0.9765625E-03
    1       -2.856250   1.000000
    2       -1.770279   1.000000
    3        0.819513   1.000000
    4        3.673300   1.000000
    5        6.075935   1.000000
    6        6.350645   1.000000
    7        8.747568   0.000000
    8        9.441362   0.000000
    9       12.187072   0.000000
   10       14.100036   0.000000
   11       15.191485   0.000000
   12       16.584153   0.000000
 
  0.4375000E+00  0.1875000E+00  0.0000000E+00  0.9765625E-03
    1       -2.710878   1.000000
    2       -1.935763   1.000000
    3        0.858119   1.000000
    4        3.651612   1.000000
    5        6.118388   1.000000
    6        6.337507   1.000000
    7        8.568187   0.000000
    8        9.619582   0.000000
    9       12.192608   0.000000
   10       14.029264   0.000000
   11       15.216613   0.000000
   12       16.567658   0.000000
 
  0.5000000E+00  0.1875000E+00  0.0000000E+00  0.9765625E-03
    1       -3.590501   1.000000
    2       -0.995731   1.000000
    3        1.071989   1.000000
    4        3.567203   1.000000
    5        6.338098   1.000000
    6        6.415563   1.000000
    7        8.070985   0.000000
    8        9.901003   0.000000
    9       12.156298   0.000000
   10       13.640638   0.000000
   11       15.164413   0.000000
   12       16.520096   0.000000
 
 -0.4375000E+00  0.1875000E+00  0.0000000E+00  0.9765625E-03
    1       -4.384078   1.000000
    2       -0.099699   1.000000
    3        1.483549   1.000000
    4        3.487452   1.000000
    5        6.202465   1.000000
    6        6.870514   0.000000
    7        7.759622   0.000000
    8        9.946900   0.000000
    9       11.883856   0.000000
   10       13.346977   0.000000
   11       15.112799   0.000000
   12       16.440850   0.000000
 
 -0.3750000E+00  0.1875000E+00  0.0000000E+00  0.4882812E-03
    1       -5.073338   1.000000
    2        0.677538   1.000000
    3        2.111382   1.000000
    4        3.462417   1.000000
    5        5.800343   1.000000
    6        7.377290   0.000000
    7        7.843730   0.000000
    8        9.765671   0.000000
    9       11.252260   0.000000
   10       13.464209   0.000000
   11       15.044100   0.000000
   12       16.255106   0.000000
 
  0.0000000E+00  0.2500000E+00  0.0000000E+00  0.4882812E-03
    1       -5.931697   1.000000
    2        1.176895   1.000000
    3        3.534146   1.000000
    4        4.024547   1.000000
    5        4.732764   1.000000
    6        8.274965   0.000000
    7        8.730733   0.000000
    8        9.214184   0.000000
    9        9.777654   0.000000
   10       14.352411   0.000000
   11       14.422893   0.000000
   12       15.686596   0.000000
 
  0.6250000E-01  0.2500000E+00  0.0000000E+00  0.9765625E-03
    1       -5.587786   1.000000
    2        0.680472   1.000000
    3        3.458947   1.000000
    4        3.497965   1.000000
    5        5.086868   1.000000
    6        8.007572   0.000000
    7        8.588847   0.000000
    8        9.326482   0.000000
    9       10.197669   0.000000
   10       14.078419   0.000000
   11       14.647542   0.000000
   12       15.716090   0.000000
 
  0.1250000E+00  0.2500000E+00  0.0000000E+00  0.9765625E-03
    1       -5.110423   1.000000
    2        0.237269   1.000000
    3        2.580529   1.000000
    4        3.446943   1.000000
    5        5.693359   1.000000
    6        7.439894   0.000000
    7        8.258652   0.000000
    8        9.593598   0.000000
    9       10.947516   0.000000
   10       13.815576   0.000000
   11       14.905380   0.000000
   12       16.151182   0.000000
 
  0.1875000E+00  0.2500000E+00  0.0000000E+00  0.9765625E-03
    1       -4.509507   1.000000
    2       -0.143679   1.000000
    3        1.570326   1.000000
    4        3.525819   1.000000
    5        6.356207   1.000000
    6        6.766582   0.000930
    7        7.935672   0.000000
    8        9.759427   0.000000
    9       11.818054   0.000000
   10       13.615031   0.000000
   11       15.070338   0.000000
   12       17.101569   0.000000
 
  0.2500000E+00  0.2500000E+00  0.0000000E+00  0.9765625E-03
    1       -3.798690   1.000000
    2       -0.510394   1.000000
    3        0.622070   1.000000
    4        3.697400   1.000000
    5        6.109225   1.000000
    6        6.945623   0.000000
    7        7.794423   0.000000
    8        9.676168   0.000000
    9       12.602334   0.000000
   10       13.560548   0.000000
   11       15.325915   0.000000
   12       17.365063   0.000000
 
  0.3125000E+00  0.2500000E+00  0.0000000E+00  0.9765625E-03
    1       -2.997821   1.000000
    2       -1.081654   1.000000
    3        0.020745   1.000000
    4        3.915662   1.000000
    5        5.582540   1.000000
    6        7.124541   0.000000
    7        8.148357   0.000000
    8        9.337274   0.000000
    9       12.951763   0.000000
   10       13.828276   0.000000
   11       15.679628   0.000000
   12       17.664867   0.000000
 
  0.3750000E+00  0.2500000E+00  0.0000000E+00  0.9765625E-03
    1       -2.147637   1.000000
    2       -1.921487   1.000000
    3       -0.106530   1.000000
    4        4.017547   1.000000
    5        5.385022   1.000000
    6        7.109644   0.000000
    7        8.422613   0.000000
    8        9.127920   0.000000
    9       12.999667   0.000000
   10       14.005801   0.000000
   11       15.898221   0.000000
   12       17.242582   0.000000
 
  0.4375000E+00  0.2500000E+00  0.0000000E+00  0.9765625E-03
    1       -2.819605   1.000000
    2       -1.296336   1.000000
    3        0.084998   1.000000
    4        3.867300   1.000000
    5        5.661852   1.000000
    6        7.122291   0.000000
    7        7.894334   0.000000
    8        9.563968   0.000000
    9       13.017329   0.000000
   10       13.652535   0.000000
   11       15.741901   0.000000
   12       17.346725   0.000000
 
  0.5000000E+00  0.2500000E+00  0.0000000E+00  0.4882812E-03
    1       -3.647981   1.000000
    2       -0.612813   1.000000
    3        0.629488   1.000000
    4        3.645459   1.000000
    5        6.216976   1.000000
    6        6.876672   0.000000
    7        7.562438   0.000000
    8        9.902014   0.000000
    9       12.745947   0.000000
   10       13.238104   0.000000
   11       15.412123   0.000000
   12       17.291154   0.000000
 
  0.0000000E+00  0.3125000E+00  0.0000000E+00  0.4882812E-03
    1       -5.323825   1.000000
    2        0.134893   1.000000
    3        3.371338   1.000000
    4        3.898771   1.000000
    5        4.666407   1.000000
    6        8.176382   0.000000
    7        8.910753   0.000000
    8        9.206851   0.000000
    9       10.057597   0.000000
   10       13.993295   0.000000
   11       14.461329   0.000000
   12       15.582420   0.000000
 
  0.6250000E-01  0.3125000E+00  0.0000000E+00  0.9765625E-03
    1       -4.925202   1.000000
    2       -0.355706   1.000000
    3        3.286809   1.000000
    4        3.336931   1.000000
    5        5.085309   1.000000
    6        7.840958   0.000000
    7        8.764403   0.000000
    8        9.483759   0.000000
    9       10.457177   0.000000
   10       13.889585   0.000000
   11       14.508596   0.000000
   12       15.705811   0.000000
 
  0.1250000E+00  0.3125000E+00  0.0000000E+00  0.9765625E-03
    1       -4.399240   1.000000
    2       -0.760938   1.000000
    3        2.309089   1.000000
    4        3.399700   1.000000
    5        5.782627   1.000000
    6        7.146813   0.000000
    7        8.457893   0.000000
    8        9.740196   0.000000
    9       11.270100   0.000000
   10       13.785204   0.000000
   11       14.680689   0.000000
   12       16.260412   0.000000
 
  0.1875000E+00  0.3125000E+00  0.0000000E+00  0.9765625E-03
    1       -3.757643   1.000000
    2       -1.066144   1.000000
    3        1.261643   1.000000
    4        3.583901   1.000000
    5        6.361167   1.000000
    6        6.538690   0.999572
    7        8.167390   0.000000
    8        9.711902   0.000000
    9       12.225692   0.000000
   10       13.690941   0.000000
   11       15.034101   0.000000
   12       17.164582   0.000000
 
  0.2500000E+00  0.3125000E+00  0.0000000E+00  0.9765625E-03
    1       -3.020984   1.000000
    2       -1.267271   1.000000
    3        0.229208   1.000000
    4        3.898088   1.000000
    5        5.603355   1.000000
    6        7.319201   0.000000
    7        7.942418   0.000000
    8        9.371731   0.000000
    9       13.138467   0.000000
   10       13.619260   0.000000
   11       15.608187   0.000000
   12       17.652971   0.000000
 
  0.3125000E+00  0.3125000E+00  0.0000000E+00  0.9765625E-03
    1       -2.242065   1.000000
    2       -1.424864   1.000000
    3       -0.642899   1.000000
    4        4.319878   1.000000
    5        4.953180   1.000000
    6        7.792351   0.000000
    7        8.050767   0.000000
    8        8.860569   0.000000
    9       13.517273   0.000000
   10       13.813590   0.000000
   11       16.305962   0.000000
   12       17.382823   0.000000
 
  0.3750000E+00  0.3125000E+00  0.0000000E+00  0.4882812E-03
    1       -1.999957   1.000000
    2       -1.615387   1.000000
    3       -0.685324   1.000000
    4        4.282390   1.000000
    5        5.000580   1.000000
    6        7.717873   0.000000
    7        7.962749   0.000000
    8        9.007749   0.000000
    9       13.441477   0.000000
   10       13.856762   0.000000
   11       16.410410   0.000000
   12       17.083959   0.000000
 
  0.0000000E+00  0.3750000E+00  0.0000000E+00  0.4882812E-03
    1       -4.606760   1.000000
    2       -0.911137   1.000000
    3        3.255121   1.000000
    4        3.779875   1.000000
    5        4.535707   1.000000
    6        8.094504   0.000000
    7        9.281024   0.000000
    8        9.318394   0.000000
    9       10.139518   0.000000
   10       13.938925   0.000000
   11       14.254118   0.000000