       N       E                     dE             d eps       ncg     rms          rms(c)
RMM:   1     0.484360054166E+02    0.48436E+02   -0.24697E+03  7884   0.650E+02
RMM:   2    -0.996966221052E+01   -0.58406E+02   -0.49330E+02  7884   0.155E+02
RMM:   3    -0.248012017814E+02   -0.14832E+02   -0.10216E+02  7884   0.537E+01
RMM:   4    -0.283938839739E+02   -0.35927E+01   -0.22758E+01  7884   0.376E+01
RMM:   5    -0.292359088972E+02   -0.84202E+00   -0.52667E+00  7884   0.139E+01
RMM:   6    -0.294164229107E+02   -0.18051E+00   -0.11925E+00  7884   0.824E+00
RMM:   7    -0.294642695015E+02   -0.47847E-01   -0.36853E-01  7884   0.338E+00
RMM:   8    -0.294779112126E+02   -0.13642E-01   -0.10085E-01  7884   0.213E+00
RMM:   9    -0.294835512096E+02   -0.56400E-02   -0.49503E-02 17310   0.906E-01
RMM:  10    -0.294838245727E+02   -0.27336E-03   -0.24816E-03 16949   0.170E-01
RMM:  11    -0.294838310168E+02   -0.64441E-05   -0.70210E-05 15130   0.293E-02
RMM:  12    -0.294838314172E+02   -0.40040E-06   -0.33600E-06 12729   0.598E-03    0.236E+01
RMM:  13    -0.243621896241E+02    0.51216E+01   -0.83678E+00 15768   0.168E+01    0.610E+00
RMM:  14    -0.242896590292E+02    0.72531E-01   -0.13579E-01 15771   0.202E+00    0.401E+00
RMM:  15    -0.242568249711E+02    0.32834E-01   -0.21224E-02 15768   0.108E+00    0.113E-01
RMM:  16    -0.242566923964E+02    0.13257E-03   -0.86222E-04 15792   0.172E-01    0.683E-02
RMM:  17    -0.242566285427E+02    0.63854E-04   -0.10064E-04 15772   0.641E-02    0.369E-02
RMM:  18    -0.242566227618E+02    0.57808E-05   -0.67168E-06 15389   0.140E-02    0.784E-03
RMM:  19    -0.242566221196E+02    0.64226E-06   -0.15525E-06 12823   0.665E-03
   1 F= -.24256622E+02 E0= -.24256415E+02  d E =-.242566E+02
       N       E                     dE             d eps       ncg     rms          rms(c)
RMM:   1    -0.242571921814E+02   -0.56942E-03   -0.66196E-02 15768   0.168E+00    0.893E-02
RMM:   2    -0.242569815047E+02    0.21068E-03   -0.46520E-04 15768   0.210E-01    0.520E-02
RMM:   3    -0.242569044529E+02    0.77052E-04   -0.17956E-04 15768   0.728E-02    0.114E-02
RMM:   4    -0.242569028278E+02    0.16251E-05   -0.56193E-06 15482   0.165E-02    0.387E-03
RMM:   5    -0.242569027574E+02    0.70422E-07   -0.30916E-07  9838   0.378E-03
   2 F= -.24256903E+02 E0= -.24256682E+02  d E =-.280638E-03
       N       E                     dE             d eps       ncg     rms          rms(c)
RMM:   1    -0.242571061522E+02   -0.20332E-03   -0.95090E-03 15768   0.636E-01    0.338E-02
RMM:   2    -0.242570760563E+02    0.30096E-04   -0.65742E-05 15748   0.793E-02    0.194E-02
RMM:   3    -0.242570650200E+02    0.11036E-04   -0.27779E-05 15687   0.283E-02    0.270E-03
RMM:   4    -0.242570649692E+02    0.50768E-07   -0.37839E-07  9634   0.528E-03
   3 F= -.24257065E+02 E0= -.24256849E+02  d E =-.162212E-03
