unknown system                          
           1
     2.941947    0.000000    0.000000
    -1.470974    2.626599    0.000000
     0.000000    0.000000    3.225690
   Ti   B 
   1   2
Direct configuration=     1
   0.00000000  0.00000000  0.00000000
   0.33333333  0.66666667  0.50000000
   0.66666667  0.33333333  0.50000000
Direct configuration=     2
   0.00000000  0.00000000  0.00000000
   0.33444675  0.66889349  0.50000000
   0.66555325  0.33110651  0.50000000
Direct configuration=     3
   0.00000000  0.00000000  0.00000000
   0.33402472  0.66804945  0.50000000
   0.66597528  0.33195055  0.50000000
