    3    3   50    1
  0.8051672E+01  0.2850959E-09  0.2988480E-09  0.3225690E-09  0.5000000E-15
  1.000000000000000E-004
  CAR 
 unknown system                          
     10    657     12
 
  0.0000000E+00  0.0000000E+00  0.0000000E+00  0.2441406E-03
    1       -7.018482   1.000000
    2        3.857338   1.000000
    3        4.218869   1.000000
    4        4.579050   1.000000
    5        4.774323   1.000000
    6        8.733532   0.000000
    7        8.942490   0.000000
    8       10.359692   0.000000
    9       10.793869   0.000000
   10       12.559748   0.000000
   11       13.478398   0.000000
   12       15.330940   0.000000
 
  0.6250000E-01 -0.6938894E-17  0.0000000E+00  0.9765625E-03
    1       -6.938534   1.000000
    2        3.821212   1.000000
    3        4.151966   1.000000
    4        4.538931   1.000000
    5        4.658832   1.000000
    6        8.735195   0.000000
    7        9.054828   0.000000
    8       10.143993   0.000000
    9       10.414894   0.000000
   10       13.056368   0.000000
   11       13.717839   0.000000
   12       15.623307   0.000000
 
  0.1250000E+00 -0.1387779E-16  0.0000000E+00  0.9765625E-03
    1       -6.700928   1.000000
    2        3.568552   1.000000
    3        3.983122   1.000000
    4        4.145763   1.000000
    5        4.764458   1.000000
    6        8.673256   0.000000
    7        9.417346   0.000000
    8        9.759499   0.000000
    9        9.764546   0.000000
   10       13.812216   0.000000
   11       14.437152   0.000000
   12       16.330601   0.000000
 
  0.1875000E+00 -0.2775558E-16  0.0000000E+00  0.9765625E-03
    1       -6.312179   1.000000
    2        2.814921   1.000000
    3        3.776395   1.000000
    4        3.926479   1.000000
    5        4.896486   1.000000
    6        8.561217   0.000000
    7        9.226166   0.000000
    8        9.504389   0.000000
    9        9.914693   0.000000
   10       14.207333   0.000000
   11       15.330723   0.000000
   12       15.634350   0.000000
 
  0.2500000E+00 -0.2775558E-16  0.0000000E+00  0.9765625E-03
    1       -5.782321   1.000000
    2        1.810161   1.000000
    3        3.584126   1.000000
    4        3.766230   1.000000
    5        4.928522   1.000000
    6        8.430391   0.000000
    7        8.998599   0.000000
    8        9.460412   0.000000
    9       10.370644   0.000000
   10       14.425820   0.000000
   11       14.626933   0.000000
   12       17.034540   0.000000
 
  0.3125000E+00 -0.2775558E-16  0.0000000E+00  0.9765625E-03
    1       -5.123967   1.000000
    2        0.725141   1.000000
    3        3.434254   1.000000
    4        3.601632   1.000000
    5        4.804575   1.000000
    6        8.305345   0.000000
    7        9.131049   0.000000
    8        9.611244   0.000000
    9       10.589535   0.000000
   10       14.321532   0.000000
   11       14.535305   0.000000
   12       16.156702   0.000000
 
  0.3750000E+00 -0.5551115E-16  0.0000000E+00  0.9765625E-03
    1       -4.352043   1.000000
    2       -0.372921   1.000000
    3        3.334402   1.000000
    4        3.455472   1.000000
    5        4.599784   1.000000
    6        8.205326   0.000000
    7        9.446402   0.000000
    8        9.921221   0.000000
    9       10.521500   0.000000
   10       14.442928   0.000000
   11       14.553552   0.000000
   12       15.898224   0.000000
 
  0.4375000E+00 -0.2775558E-16  0.0000000E+00  0.9765625E-03
    1       -3.487463   1.000000
    2       -1.440065   1.000000
    3        3.280082   1.000000
    4        3.356159   1.000000
    5        4.428860   1.000000
    6        8.142393   0.000000
    7        9.691545   0.000000
    8       10.299995   0.000000
    9       10.355987   0.000000
   10       14.494199   0.000000
   11       14.723434   0.000000
   12       15.654322   0.000000
 
  0.5000000E+00 -0.5551115E-16  0.0000000E+00  0.4882812E-03
    1       -2.728380   1.000000
    2       -2.267713   1.000000
    3        3.263233   1.000000
    4        3.321228   1.000000
    5        4.364319   1.000000
    6        8.121198   0.000000
    7        9.776811   0.000000
    8       10.280054   0.000000
    9       10.481498   0.000000
   10       14.444050   0.000000
   11       14.859056   0.000000
   12       15.559477   0.000000
 
  0.0000000E+00  0.6250000E-01  0.0000000E+00  0.4882812E-03
    1       -6.945817   1.000000
    2        3.642066   1.000000
    3        4.155560   1.000000
    4        4.620719   1.000000
    5        4.768660   1.000000
    6        8.848391   0.000000
    7        8.922347   0.000000
    8       10.044838   0.000000
    9       10.563669   0.000000
   10       13.024592   0.000000
   11       13.906725   0.000000
   12       15.457878   0.000000
 
  0.6250000E-01  0.6250000E-01  0.0000000E+00  0.9765625E-03
    1       -6.794172   1.000000
    2        3.384347   1.000000
    3        4.042248   1.000000
    4        4.460797   1.000000
    5        4.828823   1.000000
    6        8.743247   0.000000
    7        9.214915   0.000000
    8        9.721998   0.000000
    9       10.136854   0.000000
   10       13.713965   0.000000
   11       14.442125   0.000000
   12       16.285732   0.000000
 
  0.1250000E+00  0.6250000E-01  0.0000000E+00  0.9765625E-03
    1       -6.487805   1.000000
    2        2.965732   1.000000
    3        3.865752   1.000000
    4        3.988420   1.000000
    5        5.037578   1.000000
    6        8.553684   0.000000
    7        9.381049   0.000000
    8        9.636480   0.000000
    9        9.725446   0.000000
   10       14.348903   0.000000
   11       15.425537   0.000000
   12       15.750732   0.000000
 
  0.1875000E+00  0.6250000E-01  0.0000000E+00  0.9765625E-03
    1       -6.034906   1.000000
    2        2.265055   1.000000
    3        3.525262   1.000000
    4        3.684581   1.000000
    5        5.243374   1.000000
    6        8.331227   0.000000
    7        9.036576   0.000000
    8        9.475855   0.000000
    9       10.292067   0.000000
   10       14.620346   0.000000
   11       14.988781   0.000000
   12       16.299242   0.000000
 
  0.2500000E+00  0.6250000E-01  0.0000000E+00  0.9765625E-03
    1       -5.446767   1.000000
    2        1.317979   1.000000
    3        3.181553   1.000000
    4        3.535039   1.000000
    5        5.318429   1.000000
    6        8.101341   0.000000
    7        8.971196   0.000000
    8        9.541843   0.000000
    9       10.745691   0.000000
   10       14.487548   0.000000
   11       14.713448   0.000000
   12       17.586141   0.000000
 
  0.3125000E+00  0.6250000E-01  0.0000000E+00  0.9765625E-03
    1       -4.737120   1.000000
    2        0.261569   1.000000
    3        2.936738   1.000000
    4        3.429485   1.000000
    5        5.224080   1.000000
    6        7.898028   0.000000
    7        9.264788   0.000000
    8        9.699246   0.000000
    9       10.923887   0.000000
   10       14.397468   0.000000
   11       14.704109   0.000000
   12       16.140140   0.000000
 
  0.3750000E+00  0.6250000E-01  0.0000000E+00  0.9765625E-03
    1       -3.922497   1.000000
    2       -0.814899   1.000000
    3        2.787658   1.000000
    4        3.363433   1.000000
    5        5.056330   1.000000
    6        7.758925   0.000000
    7        9.693579   0.000000
    8        9.893052   0.000000
    9       10.860346   0.000000
   10       14.616918   0.000000
   11       14.641618   0.000000
   12       15.956640   0.000000
 
  0.4375000E+00  0.6250000E-01  0.0000000E+00  0.9765625E-03
    1       -3.034786   1.000000
    2       -1.847115   1.000000
    3        2.742979   1.000000
    4        3.325911   1.000000
    5        4.921705   1.000000
    6        7.715166   0.000000
    7        9.755161   0.000000
    8       10.276843   0.000000
    9       10.745983   0.000000
   10       14.596347   0.000000
   11       14.825549   0.000000
   12       15.795149   0.000000
 
  0.5000000E+00  0.6250000E-01  0.0000000E+00  0.9765625E-03
    1       -2.940766   1.000000
    2       -1.954994   1.000000
    3        2.806947   1.000000
    4        3.310727   1.000000
    5        4.872883   1.000000
    6        7.776420   0.000000
    7        9.555885   0.000000
    8       10.481338   0.000000
    9       10.709371   0.000000
   10       14.638304   0.000000
   11       14.778162   0.000000
   12       15.742883   0.000000
 
 -0.4375000E+00  0.6250000E-01  0.0000000E+00  0.9765625E-03
    1       -3.834641   1.000000
    2       -0.941615   1.000000
    3        2.972387   1.000000
    4        3.323042   1.000000
    5        4.913140   1.000000
    6        7.922386   0.000000
    7        9.203314   0.000000
    8       10.387035   0.000000
    9       10.772966   0.000000
   10       14.480518   0.000000
   11       14.716566   0.000000
   12       15.858719   0.000000
 
 -0.3750000E+00  0.6250000E-01  0.0000000E+00  0.9765625E-03
    1       -4.662192   1.000000
    2        0.134072   1.000000
    3        3.216559   1.000000
    4        3.376295   1.000000
    5        4.998992   1.000000
    6        8.113038   0.000000
    7        8.841865   0.000000
    8       10.106707   0.000000
    9       10.840646   0.000000
   10       14.181645   0.000000
   11       14.721769   0.000000
   12       16.090847   0.000000
 
 -0.3125000E+00  0.6250000E-01  0.0000000E+00  0.9765625E-03
    1       -5.384828   1.000000
    2        1.220797   1.000000
    3        3.482439   1.000000
    4        3.497242   1.000000
    5        5.041537   1.000000
    6        8.309787   0.000000
    7        8.661003   0.000000
    8        9.806316   0.000000
    9       10.705502   0.000000
   10       14.222846   0.000000
   11       14.635714   0.000000
   12       16.772191   0.000000
 
 -0.2500000E+00  0.6250000E-01  0.0000000E+00  0.9765625E-03
    1       -5.985979   1.000000
    2        2.278404   1.000000
    3        3.642374   1.000000
    4        3.752941   1.000000
    5        4.964096   1.000000
    6        8.485868   0.000000
    7        8.802620   0.000000
    8        9.630035   0.000000
    9       10.292269   0.000000
   10       14.465485   0.000000
   11       14.736938   0.000000
   12       15.871996   0.000000
 
 -0.1875000E+00  0.6250000E-01  0.0000000E+00  0.9765625E-03
    1       -6.452244   1.000000
    2        3.250405   1.000000
    3        3.838392   1.000000
    4        3.913748   1.000000
    5        4.800877   1.000000
    6        8.621162   0.000000
    7        9.249464   0.000000
    8        9.673134   0.000000
    9        9.768508   0.000000
   10       14.205761   0.000000
   11       14.747075   0.000000
   12       15.544533   0.000000
 
 -0.1250000E+00  0.6250000E-01  0.0000000E+00  0.4882812E-03
    1       -6.772508   1.000000
    2        3.922952   1.000000
    3        4.028918   1.000000
    4        4.060484   1.000000
    5        4.665016   1.000000
    6        8.698062   0.000000
    7        9.321909   0.000000
    8        9.852507   0.000000
    9        9.921441   0.000000
   10       13.711854   0.000000
   11       13.933093   0.000000
   12       16.361834   0.000000
 
  0.0000000E+00  0.1250000E+00  0.0000000E+00  0.4882812E-03
    1       -6.729638   1.000000
    2        3.046229   1.000000
    3        3.991455   1.000000
    4        4.735520   1.000000
    5        4.744987   1.000000
    6        8.865517   0.000000
    7        9.155594   0.000000
    8        9.509922   0.000000
    9       10.147541   0.000000
   10       13.963138   0.000000
   11       14.916343   0.000000
   12       15.889382   0.000000
 
  0.6250000E-01  0.1250000E+00  0.0000000E+00  0.9765625E-03
    1       -6.508992   1.000000
    2        2.646524   1.000000
    3        3.864382   1.000000
    4        4.347216   1.000000
    5        5.040413   1.000000
    6        8.662005   0.000000
    7        9.262306   0.000000
    8        9.576541   0.000000
    9        9.841905   0.000000
   10       14.627518   0.000000
   11       15.510581   0.000000
   12       16.029374   0.000000
 
  0.1250000E+00  0.1250000E+00  0.0000000E+00  0.9765625E-03
    1       -6.138001   1.000000
    2        2.190957   1.000000
    3        3.674773   1.000000
    4        3.720184   1.000000
    5        5.390192   1.000000
    6        8.324276   0.000000
    7        8.965257   0.000000
    8        9.635937   0.000000
    9       10.206462   0.000000
   10       15.149958   0.000000
   11       15.182493   0.000000
   12       16.284864   0.000000
 
  0.1875000E+00  0.1250000E+00  0.0000000E+00  0.9765625E-03
    1       -5.625974   1.000000
    2        1.626260   1.000000
    3        2.917992   1.000000
    4        3.604373   1.000000
    5        5.723087   1.000000
    6        7.931756   0.000000
    7        8.675524   0.000000
    8        9.705524   0.000000
    9       10.870916   0.000000
   10       14.630017   0.000000
   11       15.222149   0.000000
   12       16.307196   0.000000
 
  0.2500000E+00  0.1250000E+00  0.0000000E+00  0.9765625E-03
    1       -4.985167   1.000000
    2        0.842418   1.000000
    3        2.332492   1.000000
    4        3.535845   1.000000
    5        5.901205   1.000000
    6        7.536803   0.000000
    7        8.669973   0.000000
    8        9.876560   0.000000
    9       11.394642   0.000000
   10       14.349966   0.000000
   11       15.134758   0.000000
   12       16.409087   0.000000
 
  0.3125000E+00  0.1250000E+00  0.0000000E+00  0.9765625E-03
    1       -4.230265   1.000000
    2       -0.134129   1.000000
    3        1.997099   1.000000
    4        3.507678   1.000000
    5        5.874822   1.000000
    6        7.204935   0.000000
    7        9.017244   0.000000
    8        9.993888   0.000000
    9       11.624060   0.000000
   10       14.442090   0.000000
   11       15.036566   0.000000
   12       16.430408   0.000000
 
  0.3750000E+00  0.1250000E+00  0.0000000E+00  0.9765625E-03
    1       -3.379993   1.000000
    2       -1.169678   1.000000
    3        1.849522   1.000000
    4        3.494618   1.000000
    5        5.765675   1.000000
    6        7.006454   0.000978
    7        9.470938   0.000000
    8       10.002289   0.000000
    9       11.627271   0.000000
   10       14.707359   0.000000
   11       15.003307   0.000000
   12       16.378096   0.000000
 
  0.4375000E+00  0.1250000E+00  0.0000000E+00  0.9765625E-03
    1       -2.523359   1.000000
    2       -2.112937   1.000000
    3        1.853993   1.000000
    4        3.471401   1.000000
    5        5.688597   1.000000
    6        6.992416   0.003471
    7        9.426725   0.000000
    8       10.238082   0.000000
    9       11.582701   0.000000
   10       14.786714   0.000000
   11       15.044545   0.000000
   12       16.296092   0.000000
 
  0.5000000E+00  0.1250000E+00  0.0000000E+00  0.9765625E-03
    1       -3.192445   1.000000
    2       -1.412123   1.000000
    3        1.998035   1.000000
    4        3.436699   1.000000
    5        5.679365   1.000000
    6        7.165615   0.000000
    7        8.988041   0.000000
    8       10.491299   0.000000
    9       11.576137   0.000000
   10       14.521843   0.000000
   11       15.107587   0.000000
   12       16.257612   0.000000
 
 -0.4375000E+00  0.1250000E+00  0.0000000E+00  0.9765625E-03
    1       -4.068253   1.000000
    2       -0.387774   1.000000
    3        2.272003   1.000000
    4        3.415904   1.000000
    5        5.700795   1.000000
    6        7.475489   0.000000
    7        8.519303   0.000000
    8       10.476199   0.000000
    9       11.574911   0.000000
   10       14.089327   0.000000
   11       15.138637   0.000000
   12       16.302636   0.000000
 
 -0.3750000E+00  0.1250000E+00  0.0000000E+00  0.9765625E-03
    1       -4.849407   1.000000
    2        0.642809   1.000000
    3        2.658369   1.000000
    4        3.439774   1.000000
    5        5.641731   1.000000
    6        7.843273   0.000000
    7        8.250781   0.000000
    8       10.235289   0.000000
    9       11.400722   0.000000
   10       13.873725   0.000000
   11       15.108607   0.000000
   12       16.377506   0.000000
 
 -0.3125000E+00  0.1250000E+00  0.0000000E+00  0.9765625E-03
    1       -5.516094   1.000000
    2        1.631500   1.000000
    3        3.119792   1.000000
    4        3.525304   1.000000
    5        5.406318   1.000000
    6        8.191885   0.000000
    7        8.338100   0.000000
    8        9.922694   0.000000
    9       10.921289   0.000000
   10       14.143877   0.000000
   11       14.992262   0.000000
   12       16.180558   0.000000
 
 -0.2500000E+00  0.1250000E+00  0.0000000E+00  0.4882812E-03
    1       -6.054253   1.000000
    2        2.525586   1.000000
    3        3.580025   1.000000
    4        3.667964   1.000000
    5        5.067194   1.000000
    6        8.463360   0.000000
    7        8.726756   0.000000
    8        9.701684   0.000000
    9       10.307339   0.000000
   10       14.726853   0.000000
   11       14.779718   0.000000
   12       15.279446   0.000000
 
  0.0000000E+00  0.1875000E+00  0.0000000E+00  0.4882812E-03
    1       -6.375225   1.000000
    2        2.193691   1.000000
    3        3.780828   1.000000
    4        4.689502   1.000000
    5        4.867098   1.000000
    6        8.781838   0.000000
    7        9.115415   0.000000
    8        9.564255   0.000000
    9        9.818992   0.000000
   10       14.849372   0.000000
   11       15.608869   0.000000
   12       16.041265   0.000000
 
  0.6250000E-01  0.1875000E+00  0.0000000E+00  0.9765625E-03
    1       -6.089643   1.000000
    2        1.727044   1.000000
    3        3.669138   1.000000
    4        4.173247   1.000000
    5        5.253148   1.000000
    6        8.520527   0.000000
    7        8.958212   0.000000
    8        9.699583   0.000000
    9       10.026538   0.000000
   10       15.168332   0.000000
   11       15.333522   0.000000
   12       16.596294   0.000000
 
  0.1250000E+00  0.1875000E+00  0.0000000E+00  0.9765625E-03
    1       -5.658989   1.000000
    2        1.282378   1.000000
    3        3.318928   1.000000
    4        3.586119   1.000000
    5        5.750752   1.000000
    6        8.021564   0.000000
    7        8.657308   0.000000
    8        9.778770   0.000000
    9       10.760174   0.000000
   10       14.688432   0.000000
   11       15.558699   0.000000
   12       16.595189   0.000000
 
  0.1875000E+00  0.1875000E+00  0.0000000E+00  0.9765625E-03
    1       -5.093381   1.000000
    2        0.855996   1.000000
    3        2.344741   1.000000
    4        3.565838   1.000000
    5        6.246062   1.000000
    6        7.442630   0.000000
    7        8.363779   0.000000
    8        9.979387   0.000000
    9       11.546876   0.000000
   10       14.335159   0.000000
   11       15.486797   0.000000
   12       16.945872   0.000000
 
  0.2500000E+00  0.1875000E+00  0.0000000E+00  0.9765625E-03
    1       -4.405888   1.000000
    2        0.345455   1.000000
    3        1.479010   1.000000
    4        3.612601   1.000000
    5        6.562523   1.000000
    6        6.879610   0.688285
    7        8.370354   0.000000
    8       10.094698   0.000000
    9       12.183198   0.000000
   10       14.232546   0.000000
   11       15.434591   0.000000
   12       17.006430   0.000000
 
  0.3125000E+00  0.1875000E+00  0.0000000E+00  0.9765625E-03
    1       -3.612808   1.000000
    2       -0.452624   1.000000
    3        1.008591   1.000000
    4        3.694204   1.000000
    5        6.433600   1.000000
    6        6.592544   1.000000
    7        8.785937   0.000000
    8        9.996909   0.000000
    9       12.473673   0.000000
   10       14.462636   0.000000
   11       15.493917   0.000000
   12       17.090079   0.000000
 
  0.3750000E+00  0.1875000E+00  0.0000000E+00  0.9765625E-03
    1       -2.737023   1.000000
    2       -1.427419   1.000000
    3        0.881277   1.000000
    4        3.740139   1.000000
    5        6.218961   1.000000
    6        6.523626   1.000000
    7        9.198243   0.000000
    8        9.826599   0.000000
    9       12.519719   0.000000
   10       14.715908   0.000000
   11       15.620622   0.000000
   12       17.110440   0.000000
 
  0.4375000E+00  0.1875000E+00  0.0000000E+00  0.9765625E-03
    1       -2.439679   1.000000
    2       -1.768943   1.000000
    3        0.963753   1.000000
    4        3.692513   1.000000
    5        6.312012   1.000000
    6        6.494607   1.000000
    7        8.840527   0.000000
    8       10.182086   0.000000
    9       12.517188   0.000000
   10       14.578831   0.000000
   11       15.680568   0.000000
   12       17.074217   0.000000
 
  0.5000000E+00  0.1875000E+00  0.0000000E+00  0.9765625E-03
    1       -3.351818   1.000000
    2       -0.820011   1.000000
    3        1.229498   1.000000
    4        3.584173   1.000000
    5        6.502794   1.000000
    6        6.671362   1.000000
    7        8.253460   0.000000
    8       10.505360   0.000000
    9       12.510921   0.000000
   10       14.062141   0.000000
   11       15.625801   0.000000
   12       17.005259   0.000000
 
 -0.4375000E+00  0.1875000E+00  0.0000000E+00  0.9765625E-03
    1       -4.185536   1.000000
    2        0.099672   1.000000
    3        1.692766   1.000000
    4        3.493330   1.000000
    5        6.381393   1.000000
    6        7.181292   0.000000
    7        7.878345   0.000000
    8       10.528239   0.000000
    9       12.313638   0.000000
   10       13.618471   0.000000
   11       15.536448   0.000000
   12       17.173783   0.000000
 
 -0.3750000E+00  0.1875000E+00  0.0000000E+00  0.4882812E-03
    1       -4.911986   1.000000
    2        0.917095   1.000000
    3        2.356088   1.000000
    4        3.469682   1.000000
    5        5.954140   1.000000
    6        7.724218   0.000000
    7        7.961951   0.000000
    8       10.281079   0.000000
    9       11.681808   0.000000
   10       13.705393   0.000000
   11       15.395296   0.000000
   12       16.730465   0.000000
 
  0.0000000E+00  0.2500000E+00  0.0000000E+00  0.4882812E-03
    1       -5.890715   1.000000
    2        1.204053   1.000000
    3        3.571746   1.000000
    4        4.596823   1.000000
    5        4.931483   1.000000
    6        8.685150   0.000000
    7        9.011373   0.000000
    8        9.653418   0.000000
    9        9.961102   0.000000
   10       14.934666   0.000000
   11       15.242604   0.000000
   12       16.025861   0.000000
 
  0.6250000E-01  0.2500000E+00  0.0000000E+00  0.9765625E-03
    1       -5.545176   1.000000
    2        0.715455   1.000000
    3        3.493499   1.000000
    4        3.963432   1.000000
    5        5.390857   1.000000
    6        8.352108   0.000000
    7        8.909628   0.000000
    8        9.731483   0.000000
    9       10.439603   0.000000
   10       14.648485   0.000000
   11       15.304563   0.000000
   12       17.318762   0.000000
 
  0.1250000E+00  0.2500000E+00  0.0000000E+00  0.9765625E-03
    1       -5.060392   1.000000
    2        0.295600   1.000000
    3        2.994134   1.000000
    4        3.486547   1.000000
    5        6.023692   1.000000
    6        7.694927   0.000000
    7        8.581608   0.000000
    8        9.987164   0.000000
    9       11.270653   0.000000
   10       14.369959   0.000000
   11       15.325024   0.000000
   12       17.083054   0.000000
 
  0.1875000E+00  0.2500000E+00  0.0000000E+00  0.9765625E-03
    1       -4.447210   1.000000
    2       -0.041070   1.000000
    3        1.921014   1.000000
    4        3.578676   1.000000
    5        6.698337   1.000000
    6        6.951359   0.061979
    7        8.244606   0.000000
    8       10.151596   0.000000
    9       12.195151   0.000000
   10       14.163684   0.000000
   11       15.415311   0.000000
   12       18.130698   0.000000
 
  0.2500000E+00  0.2500000E+00  0.0000000E+00  0.9765625E-03
    1       -3.720542   1.000000
    2       -0.311403   1.000000
    3        0.859267   1.000000
    4        3.769101   1.000000
    5        6.242616   1.000000
    6        7.243179   0.000000
    7        8.153030   0.000000
    8       10.052261   0.000000
    9       12.978739   0.000000
   10       14.146614   0.000000
   11       15.685687   0.000000
   12       17.866054   0.000000
 
  0.3125000E+00  0.2500000E+00  0.0000000E+00  0.9765625E-03
    1       -2.901776   1.000000
    2       -0.725275   1.000000
    3        0.086794   1.000000
    4        4.000823   1.000000
    5        5.691698   1.000000
    6        7.326465   0.000000
    7        8.613508   0.000000
    8        9.688211   0.000000
    9       13.294857   0.000000
   10       14.469112   0.000000
   11       16.096262   0.000000
   12       17.796177   0.000000
 
  0.3750000E+00  0.2500000E+00  0.0000000E+00  0.9765625E-03
    1       -2.028087   1.000000
    2       -1.583402   1.000000
    3       -0.034790   1.000000
    4        4.081328   1.000000
    5        5.524885   1.000000
    6        7.282494   0.000000
    7        8.767594   0.000000
    8        9.613785   0.000000
    9       13.333839   0.000000
   10       14.626841   0.000000
   11       16.377467   0.000000
   12       17.741918   0.000000
 
  0.4375000E+00  0.2500000E+00  0.0000000E+00  0.9765625E-03
    1       -2.527745   1.000000
    2       -1.169247   1.000000
    3        0.214002   1.000000
    4        3.893661   1.000000
    5        5.866324   1.000000
    6        7.307724   0.000000
    7        8.106979   0.000000
    8       10.150310   0.000000
    9       13.357912   0.000000
   10       14.173363   0.000000
   11       16.230778   0.000000
   12       17.834234   0.000000
 
  0.5000000E+00  0.2500000E+00  0.0000000E+00  0.4882812E-03
    1       -3.405644   1.000000
    2       -0.461098   1.000000
    3        0.809741   1.000000
    4        3.654088   1.000000
    5        6.479660   1.000000
    6        7.122171   0.000000
    7        7.653943   0.000000
    8       10.511465   0.000000
    9       13.265187   0.000000
   10       13.483469   0.000000
   11       15.874286   0.000000
   12       17.838958   0.000000
 
  0.0000000E+00  0.3125000E+00  0.0000000E+00  0.4882812E-03
    1       -5.286160   1.000000
    2        0.159725   1.000000
    3        3.394450   1.000000
    4        4.480214   1.000000
    5        4.887137   1.000000
    6        8.590531   0.000000
    7        9.236589   0.000000
    8        9.632808   0.000000
    9       10.237018   0.000000
   10       14.543495   0.000000
   11       15.038485   0.000000
   12       16.239404   0.000000
 
  0.6250000E-01  0.3125000E+00  0.0000000E+00  0.9765625E-03
    1       -4.886270   1.000000
    2       -0.325850   1.000000
    3        3.357183   1.000000
    4        3.759779   1.000000
    5        5.416672   1.000000
    6        8.185404   0.000000
    7        9.116215   0.000000
    8        9.890859   0.000000
    9       10.714940   0.000000
   10       14.413016   0.000000
   11       14.924931   0.000000
   12       18.209366   0.000000
 
  0.1250000E+00  0.3125000E+00  0.0000000E+00  0.9765625E-03
    1       -4.353357   1.000000
    2       -0.716044   1.000000
    3        2.741507   1.000000
    4        3.426837   1.000000
    5        6.140582   1.000000
    6        7.400690   0.000000
    7        8.782772   0.000000
    8       10.156157   0.000000
    9       11.627959   0.000000
   10       14.279938   0.000000
   11       14.995253   0.000000
   12       17.332634   0.000000
 
  0.1875000E+00  0.3125000E+00  0.0000000E+00  0.9765625E-03
    1       -3.700029   1.000000
    2       -0.995457   1.000000
    3        1.652030   1.000000
    4        3.627783   1.000000
    5        6.544774   1.000000
    6        6.919305   0.263782
    7        8.450406   0.000000
    8       10.122749   0.000000
    9       12.663679   0.000000
   10       14.160305   0.000000
   11       15.341516   0.000000
   12       18.362198   0.000000
 
  0.2500000E+00  0.3125000E+00  0.0000000E+00  0.9765625E-03
    1       -2.948491   1.000000
    2       -1.150530   1.000000
    3        0.558102   1.000000
    4        3.967650   1.000000
    5        5.731980   1.000000
    6        7.723133   0.000000
    7        8.191166   0.000000
    8        9.761768   0.000000
    9       13.607108   0.000000
   10       14.105712   0.000000
   11       15.961835   0.000000
   12       18.318143   0.000000
 
  0.3125000E+00  0.3125000E+00  0.0000000E+00  0.9765625E-03
    1       -2.155588   1.000000
    2       -1.174661   1.000000
    3       -0.457720   1.000000
    4        4.416580   1.000000
    5        5.046624   1.000000
    6        7.962892   0.000000
    7        8.509126   0.000000
    8        9.249588   0.000000
    9       13.849936   0.000000
   10       14.469217   0.000000
   11       16.732331   0.000000
   12       17.734521   0.000000
 
  0.3750000E+00  0.3125000E+00  0.0000000E+00  0.4882812E-03
    1       -1.635909   1.000000
    2       -1.525664   1.000000
    3       -0.607660   1.000000
    4        4.329890   1.000000
    5        5.154811   1.000000
    6        7.833506   0.000000
    7        8.316170   0.000000
    8        9.540074   0.000000
    9       13.742490   0.000000
   10       14.510373   0.000000
   11       16.932135   0.000000
   12       17.570320   0.000000
 
  0.0000000E+00  0.3750000E+00  0.0000000E+00  0.4882812E-03
    1       -4.572845   1.000000
    2       -0.887500   1.000000
    3        3.263806   1.000000
    4        4.367358   1.000000
    5        4.777217   1.000000
    6        8.511860   0.000000
    7        9.695947   0.000000
    8        9.696047   0.000000
    9       10.345172   0.000000
   10       14.427342   0.000000
   11       14.589058   0.000000