       N       E                     dE             d eps       ncg     rms          rms(c)
RMM:   1     0.501517447449E+02    0.50152E+02   -0.24779E+03  7884   0.654E+02
RMM:   2    -0.954712525091E+01   -0.59699E+02   -0.50009E+02  7884   0.156E+02
RMM:   3    -0.246410514447E+02   -0.15094E+02   -0.10305E+02  7884   0.542E+01
RMM:   4    -0.283468764958E+02   -0.37058E+01   -0.23230E+01  7884   0.382E+01
RMM:   5    -0.292139484424E+02   -0.86707E+00   -0.54574E+00  7884   0.141E+01
RMM:   6    -0.294032061016E+02   -0.18926E+00   -0.12391E+00  7884   0.843E+00
RMM:   7    -0.294536321301E+02   -0.50426E-01   -0.38154E-01  7884   0.342E+00
RMM:   8    -0.294673585353E+02   -0.13726E-01   -0.10017E-01  7884   0.216E+00
RMM:   9    -0.294727872567E+02   -0.54287E-02   -0.47232E-02 17278   0.894E-01
RMM:  10    -0.294730449096E+02   -0.25765E-03   -0.23557E-03 16871   0.173E-01
RMM:  11    -0.294730519882E+02   -0.70787E-05   -0.66608E-05 15163   0.299E-02
RMM:  12    -0.294730523878E+02   -0.39953E-06   -0.34868E-06 12745   0.620E-03    0.247E+01
RMM:  13    -0.242114011683E+02    0.52617E+01   -0.82720E+00 15768   0.168E+01    0.671E+00
RMM:  14    -0.241287119697E+02    0.82689E-01   -0.12939E-01 15770   0.201E+00    0.429E+00
RMM:  15    -0.240924956847E+02    0.36216E-01   -0.23490E-02 15768   0.116E+00    0.125E-01
RMM:  16    -0.240923933592E+02    0.10233E-03   -0.71785E-04 15771   0.160E-01    0.644E-02
RMM:  17    -0.240922960193E+02    0.97340E-04   -0.87727E-05 15768   0.647E-02    0.171E-02
RMM:  18    -0.240922939783E+02    0.20410E-05   -0.37053E-06 14448   0.126E-02    0.697E-03
RMM:  19    -0.240922925779E+02    0.14004E-05   -0.48299E-07 11360   0.446E-03    0.203E-03
RMM:  20    -0.240922927557E+02   -0.17782E-06   -0.64348E-08  9829   0.191E-03
   1 F= -.24092293E+02 E0= -.24092156E+02  d E =-.240923E+02
       N       E                     dE             d eps       ncg     rms          rms(c)
RMM:   1    -0.240959940208E+02   -0.37014E-02   -0.48029E-01 15768   0.454E+00    0.257E-01
RMM:   2    -0.240943031665E+02    0.16909E-02   -0.38676E-03 15768   0.600E-01    0.167E-01
RMM:   3    -0.240937220301E+02    0.58114E-03   -0.93835E-04 15768   0.175E-01    0.542E-02
RMM:   4    -0.240936525933E+02    0.69437E-04   -0.17974E-04 15768   0.787E-02    0.125E-02
RMM:   5    -0.240936513129E+02    0.12804E-05   -0.56734E-06 15653   0.180E-02    0.658E-03
RMM:   6    -0.240936511796E+02    0.13329E-06   -0.30823E-07  9971   0.430E-03
   2 F= -.24093651E+02 E0= -.24093515E+02  d E =-.135842E-02
       N       E                     dE             d eps       ncg     rms          rms(c)
RMM:   1    -0.240956740912E+02   -0.20228E-02   -0.88192E-02 15768   0.194E+00    0.111E-01
RMM:   2    -0.240953511581E+02    0.32293E-03   -0.67128E-04 15768   0.253E-01    0.674E-02
RMM:   3    -0.240952405091E+02    0.11065E-03   -0.21726E-04 15768   0.815E-02    0.144E-02
RMM:   4    -0.240952371674E+02    0.33417E-05   -0.13327E-05 15767   0.237E-02    0.421E-03
RMM:   5    -0.240952370919E+02    0.75570E-07   -0.27852E-07  9782   0.424E-03
   3 F= -.24095237E+02 E0= -.24095106E+02  d E =-.158591E-02
       N       E                     dE             d eps       ncg     rms          rms(c)
RMM:   1    -0.240952375760E+02   -0.40863E-06   -0.21468E-05 15445   0.304E-02    0.161E-03
RMM:   2    -0.240952375181E+02    0.57911E-07   -0.14205E-07  8687   0.394E-03
   4 F= -.24095238E+02 E0= -.24095106E+02  d E =-.426285E-06
