<?xml version="1.0" encoding="ISO-8859-1"?>
<modeling>
 <generator>
  <i name="program" type="string">vasp </i>
  <i name="version" type="string">5.4.4.18Apr17-6-g9f103f2a35  </i>
  <i name="subversion" type="string">(build Nov 22 2017 20:28:56) complex            parallel </i>
  <i name="platform" type="string">LinuxIFC </i>
  <i name="date" type="string">2019 09 11 </i>
  <i name="time" type="string">22:43:35 </i>
 </generator>
 <incar>
  <i type="int" name="ISTART">     0</i>
  <i type="string" name="PREC">accurate</i>
  <i type="int" name="IALGO">    48</i>
  <i type="string" name="ALGO"> Very Fast</i>
  <i type="int" name="NSIM">     4</i>
  <i type="int" name="IBRION">     1</i>
  <i name="EDIFF">      0.00000100</i>
  <i type="int" name="NSW">    50</i>
  <i type="int" name="ISIF">     2</i>
  <i type="int" name="ISYM">     2</i>
  <i name="ENCUT">    600.00000000</i>
  <i name="POTIM">      0.50000000</i>
  <i type="logical" name="LPLANE"> T  </i>
  <i type="int" name="ISMEAR">     0</i>
  <i name="SIGMA">      0.05000000</i>
  <i type="logical" name="LWAVE"> F  </i>
  <i type="logical" name="LCHARG"> F  </i>
  <v type="int" name="KPOINT_BSE">    -1     0     0     0</v>
 </incar>
 <structure name="primitive_cell" >
  <crystal>
   <varray name="basis" >
    <v>       2.85095912       0.00000000       0.00000000 </v>
    <v>      -1.42547956       2.62659896       0.00000000 </v>
    <v>       0.00000000       0.00000000       3.22568951 </v>
   </varray>
   <i name="volume">     24.15501545 </i>
   <varray name="rec_basis" >
    <v>       0.35075915       0.19036024       0.00000000 </v>
    <v>       0.00000000       0.38072047       0.00000000 </v>
    <v>       0.00000000       0.00000000       0.31001124 </v>
   </varray>
  </crystal>
  <varray name="positions" >
   <v>       0.00000000       0.00000000       0.00000000 </v>
   <v>       0.33333333      -0.33333333      -0.50000000 </v>
   <v>      -0.33333333       0.33333333      -0.50000000 </v>
  </varray>
 </structure>
 <varray name="primitive_index" >
  <v type="int" >        1 </v>
  <v type="int" >        2 </v>
  <v type="int" >        3 </v>
 </varray>
 <kpoints>
  <generation param="Gamma">
   <v type="int" name="divisions">      16       16       16 </v>
   <v name="usershift">      0.00000000       0.00000000       0.00000000 </v>
   <v name="genvec1">      0.06250000       0.00000000       0.00000000 </v>
   <v name="genvec2">      0.00000000       0.06250000       0.00000000 </v>
   <v name="genvec3">      0.00000000       0.00000000       0.06250000 </v>
   <v name="shift">      0.00000000       0.00000000       0.00000000 </v>
  </generation>
  <varray name="kpointlist" >
   <v>       0.00000000       0.00000000       0.00000000 </v>
   <v>       0.06250000      -0.00000000       0.00000000 </v>
   <v>       0.12500000      -0.00000000       0.00000000 </v>
   <v>       0.18750000      -0.00000000       0.00000000 </v>
   <v>       0.25000000      -0.00000000       0.00000000 </v>
   <v>       0.31250000      -0.00000000       0.00000000 </v>
   <v>       0.37500000      -0.00000000       0.00000000 </v>
   <v>       0.43750000      -0.00000000       0.00000000 </v>
   <v>       0.50000000      -0.00000000       0.00000000 </v>
   <v>       0.00000000       0.06250000       0.00000000 </v>
   <v>       0.06250000       0.06250000       0.00000000 </v>
   <v>       0.12500000       0.06250000       0.00000000 </v>
   <v>       0.18750000       0.06250000       0.00000000 </v>
   <v>       0.25000000       0.06250000       0.00000000 </v>
   <v>       0.31250000       0.06250000       0.00000000 </v>
   <v>       0.37500000       0.06250000       0.00000000 </v>
   <v>       0.43750000       0.06250000       0.00000000 </v>
   <v>       0.50000000       0.06250000       0.00000000 </v>
   <v>      -0.43750000       0.06250000       0.00000000 </v>
   <v>      -0.37500000       0.06250000       0.00000000 </v>
   <v>      -0.31250000       0.06250000       0.00000000 </v>
   <v>      -0.25000000       0.06250000       0.00000000 </v>
   <v>      -0.18750000       0.06250000       0.00000000 </v>
   <v>      -0.12500000       0.06250000       0.00000000 </v>
   <v>       0.00000000       0.12500000       0.00000000 </v>
   <v>       0.06250000       0.12500000       0.00000000 </v>
   <v>       0.12500000       0.12500000       0.00000000 </v>
   <v>       0.18750000       0.12500000       0.00000000 </v>
   <v>       0.25000000       0.12500000       0.00000000 </v>
   <v>       0.31250000       0.12500000       0.00000000 </v>
   <v>       0.37500000       0.12500000       0.00000000 </v>
   <v>       0.43750000       0.12500000       0.00000000 </v>
   <v>       0.50000000       0.12500000       0.00000000 </v>
   <v>      -0.43750000       0.12500000       0.00000000 </v>
   <v>      -0.37500000       0.12500000       0.00000000 </v>
   <v>      -0.31250000       0.12500000       0.00000000 </v>
   <v>      -0.25000000       0.12500000       0.00000000 </v>
   <v>       0.00000000       0.18750000       0.00000000 </v>
   <v>       0.06250000       0.18750000       0.00000000 </v>
   <v>       0.12500000       0.18750000       0.00000000 </v>
   <v>       0.18750000       0.18750000       0.00000000 </v>
   <v>       0.25000000       0.18750000       0.00000000 </v>
   <v>       0.31250000       0.18750000       0.00000000 </v>
   <v>       0.37500000       0.18750000       0.00000000 </v>
   <v>       0.43750000       0.18750000       0.00000000 </v>
   <v>       0.50000000       0.18750000       0.00000000 </v>
   <v>      -0.43750000       0.18750000       0.00000000 </v>
   <v>      -0.37500000       0.18750000       0.00000000 </v>
   <v>       0.00000000       0.25000000       0.00000000 </v>
   <v>       0.06250000       0.25000000       0.00000000 </v>
   <v>       0.12500000       0.25000000       0.00000000 </v>
   <v>       0.18750000       0.25000000       0.00000000 </v>
   <v>       0.25000000       0.25000000       0.00000000 </v>
   <v>       0.31250000       0.25000000       0.00000000 </v>
   <v>       0.37500000       0.25000000       0.00000000 </v>
   <v>       0.43750000       0.25000000       0.00000000 </v>
   <v>       0.50000000       0.25000000       0.00000000 </v>
   <v>       0.00000000       0.31250000       0.00000000 </v>
   <v>       0.06250000       0.31250000       0.00000000 </v>
   <v>       0.12500000       0.31250000       0.00000000 </v>
   <v>       0.18750000       0.31250000       0.00000000 </v>
   <v>       0.25000000       0.31250000       0.00000000 </v>
   <v>       0.31250000       0.31250000       0.00000000 </v>
   <v>       0.37500000       0.31250000       0.00000000 </v>
   <v>       0.00000000       0.37500000       0.00000000 </v>
   <v>       0.06250000       0.37500000       0.00000000 </v>
   <v>       0.12500000       0.37500000       0.00000000 </v>
   <v>       0.18750000       0.37500000       0.00000000 </v>
   <v>       0.25000000       0.37500000       0.00000000 </v>
   <v>       0.00000000       0.43750000       0.00000000 </v>
   <v>       0.06250000       0.43750000       0.00000000 </v>
   <v>       0.12500000       0.43750000       0.00000000 </v>
   <v>       0.00000000       0.50000000       0.00000000 </v>
   <v>       0.00000000       0.00000000       0.06250000 </v>
   <v>       0.06250000      -0.00000000       0.06250000 </v>
   <v>       0.12500000      -0.00000000       0.06250000 </v>
   <v>       0.18750000      -0.00000000       0.06250000 </v>
   <v>       0.25000000      -0.00000000       0.06250000 </v>
   <v>       0.31250000      -0.00000000       0.06250000 </v>
   <v>       0.37500000      -0.00000000       0.06250000 </v>
   <v>       0.43750000      -0.00000000       0.06250000 </v>
   <v>       0.50000000      -0.00000000       0.06250000 </v>
   <v>       0.00000000       0.06250000       0.06250000 </v>
   <v>       0.06250000       0.06250000       0.06250000 </v>
   <v>       0.12500000       0.06250000       0.06250000 </v>
   <v>       0.18750000       0.06250000       0.06250000 </v>
   <v>       0.25000000       0.06250000       0.06250000 </v>
   <v>       0.31250000       0.06250000       0.06250000 </v>
   <v>       0.37500000       0.06250000       0.06250000 </v>
   <v>       0.43750000       0.06250000       0.06250000 </v>
   <v>       0.50000000       0.06250000       0.06250000 </v>
   <v>      -0.43750000       0.06250000       0.06250000 </v>
   <v>      -0.37500000       0.06250000       0.06250000 </v>
   <v>      -0.31250000       0.06250000       0.06250000 </v>
   <v>      -0.25000000       0.06250000       0.06250000 </v>
   <v>      -0.18750000       0.06250000       0.06250000 </v>
   <v>      -0.12500000       0.06250000       0.06250000 </v>
   <v>       0.00000000       0.12500000       0.06250000 </v>
   <v>       0.06250000       0.12500000       0.06250000 </v>
   <v>       0.12500000       0.12500000       0.06250000 </v>
   <v>       0.18750000       0.12500000       0.06250000 </v>
   <v>       0.25000000       0.12500000       0.06250000 </v>
   <v>       0.31250000       0.12500000       0.06250000 </v>
   <v>       0.37500000       0.12500000       0.06250000 </v>
   <v>       0.43750000       0.12500000       0.06250000 </v>
   <v>       0.50000000       0.12500000       0.06250000 </v>
   <v>      -0.43750000       0.12500000       0.06250000 </v>
   <v>      -0.37500000       0.12500000       0.06250000 </v>
   <v>      -0.31250000       0.12500000       0.06250000 </v>
   <v>      -0.25000000       0.12500000       0.06250000 </v>
   <v>       0.00000000       0.18750000       0.06250000 </v>
   <v>       0.06250000       0.18750000       0.06250000 </v>
   <v>       0.12500000       0.18750000       0.06250000 </v>
   <v>       0.18750000       0.18750000       0.06250000 </v>
   <v>       0.25000000       0.18750000       0.06250000 </v>
   <v>       0.31250000       0.18750000       0.06250000 </v>
   <v>       0.37500000       0.18750000       0.06250000 </v>
   <v>       0.43750000       0.18750000       0.06250000 </v>
   <v>       0.50000000       0.18750000       0.06250000 </v>
   <v>      -0.43750000       0.18750000       0.06250000 </v>
   <v>      -0.37500000       0.18750000       0.06250000 </v>
   <v>       0.00000000       0.25000000       0.06250000 </v>
   <v>       0.06250000       0.25000000       0.06250000 </v>
   <v>       0.12500000       0.25000000       0.06250000 </v>
   <v>       0.18750000       0.25000000       0.06250000 </v>
   <v>       0.25000000       0.25000000       0.06250000 </v>
   <v>       0.31250000       0.25000000       0.06250000 </v>
   <v>       0.37500000       0.25000000       0.06250000 </v>
   <v>       0.43750000       0.25000000       0.06250000 </v>
   <v>       0.50000000       0.25000000       0.06250000 </v>
   <v>       0.00000000       0.31250000       0.06250000 </v>
   <v>       0.06250000       0.31250000       0.06250000 </v>
   <v>       0.12500000       0.31250000       0.06250000 </v>
   <v>       0.18750000       0.31250000       0.06250000 </v>
   <v>       0.25000000       0.31250000       0.06250000 </v>
   <v>       0.31250000       0.31250000       0.06250000 </v>
   <v>       0.37500000       0.31250000       0.06250000 </v>
   <v>       0.00000000       0.37500000       0.06250000 </v>
   <v>       0.06250000       0.37500000       0.06250000 </v>
   <v>       0.12500000       0.37500000       0.06250000 </v>
   <v>       0.18750000       0.37500000       0.06250000 </v>
   <v>       0.25000000       0.37500000       0.06250000 </v>
   <v>       0.00000000       0.43750000       0.06250000 </v>
   <v>       0.06250000       0.43750000       0.06250000 </v>
   <v>       0.12500000       0.43750000       0.06250000 </v>
   <v>       0.00000000       0.50000000       0.06250000 </v>
   <v>       0.00000000       0.00000000       0.12500000 </v>
   <v>       0.06250000      -0.00000000       0.12500000 </v>
   <v>       0.12500000      -0.00000000       0.12500000 </v>
   <v>       0.18750000      -0.00000000       0.12500000 </v>
   <v>       0.25000000      -0.00000000       0.12500000 </v>
   <v>       0.31250000      -0.00000000       0.12500000 </v>
   <v>       0.37500000      -0.00000000       0.12500000 </v>
   <v>       0.43750000      -0.00000000       0.12500000 </v>
   <v>       0.50000000      -0.00000000       0.12500000 </v>
   <v>       0.00000000       0.06250000       0.12500000 </v>
   <v>       0.06250000       0.06250000       0.12500000 </v>
   <v>       0.12500000       0.06250000       0.12500000 </v>
   <v>       0.18750000       0.06250000       0.12500000 </v>
   <v>       0.25000000       0.06250000       0.12500000 </v>
   <v>       0.31250000       0.06250000       0.12500000 </v>
   <v>       0.37500000       0.06250000       0.12500000 </v>
   <v>       0.43750000       0.06250000       0.12500000 </v>
   <v>       0.50000000       0.06250000       0.12500000 </v>
   <v>      -0.43750000       0.06250000       0.12500000 </v>
   <v>      -0.37500000       0.06250000       0.12500000 </v>
   <v>      -0.31250000       0.06250000       0.12500000 </v>
   <v>      -0.25000000       0.06250000       0.12500000 </v>
   <v>      -0.18750000       0.06250000       0.12500000 </v>
   <v>      -0.12500000       0.06250000       0.12500000 </v>
   <v>       0.00000000       0.12500000       0.12500000 </v>
   <v>       0.06250000       0.12500000       0.12500000 </v>
   <v>       0.12500000       0.12500000       0.12500000 </v>
   <v>       0.18750000       0.12500000       0.12500000 </v>
   <v>       0.25000000       0.12500000       0.12500000 </v>
   <v>       0.31250000       0.12500000       0.12500000 </v>
   <v>       0.37500000       0.12500000       0.12500000 </v>
   <v>       0.43750000       0.12500000       0.12500000 </v>
   <v>       0.50000000       0.12500000       0.12500000 </v>
   <v>      -0.43750000       0.12500000       0.12500000 </v>
   <v>      -0.37500000       0.12500000       0.12500000 </v>
   <v>      -0.31250000       0.12500000       0.12500000 </v>
   <v>      -0.25000000       0.12500000       0.12500000 </v>
   <v>       0.00000000       0.18750000       0.12500000 </v>
   <v>       0.06250000       0.18750000       0.12500000 </v>
   <v>       0.12500000       0.18750000       0.12500000 </v>
   <v>       0.18750000       0.18750000       0.12500000 </v>
   <v>       0.25000000       0.18750000       0.12500000 </v>
   <v>       0.31250000       0.18750000       0.12500000 </v>
   <v>       0.37500000       0.18750000       0.12500000 </v>
   <v>       0.43750000       0.18750000       0.12500000 </v>
   <v>       0.50000000       0.18750000       0.12500000 </v>
   <v>      -0.43750000       0.18750000       0.12500000 </v>
   <v>      -0.37500000       0.18750000       0.12500000 </v>
   <v>       0.00000000       0.25000000       0.12500000 </v>
   <v>       0.06250000       0.25000000       0.12500000 </v>
   <v>       0.12500000       0.25000000       0.12500000 </v>
   <v>       0.18750000       0.25000000       0.12500000 </v>
   <v>       0.25000000       0.25000000       0.12500000 </v>
   <v>       0.31250000       0.25000000       0.12500000 </v>
   <v>       0.37500000       0.25000000       0.12500000 </v>
   <v>       0.43750000       0.25000000       0.12500000 </v>
   <v>       0.50000000       0.25000000       0.12500000 </v>
   <v>       0.00000000       0.31250000       0.12500000 </v>
   <v>       0.06250000       0.31250000       0.12500000 </v>
   <v>       0.12500000       0.31250000       0.12500000 </v>
   <v>       0.18750000       0.31250000       0.12500000 </v>
   <v>       0.25000000       0.31250000       0.12500000 </v>
   <v>       0.31250000       0.31250000       0.12500000 </v>
   <v>       0.37500000       0.31250000       0.12500000 </v>
   <v>       0.00000000       0.37500000       0.12500000 </v>
   <v>       0.06250000       0.37500000       0.12500000 </v>
   <v>       0.12500000       0.37500000       0.12500000 </v>
   <v>       0.18750000       0.37500000       0.12500000 </v>
   <v>       0.25000000       0.37500000       0.12500000 </v>
   <v>       0.00000000       0.43750000       0.12500000 </v>
   <v>       0.06250000       0.43750000       0.12500000 </v>
   <v>       0.12500000       0.43750000       0.12500000 </v>
   <v>       0.00000000       0.50000000       0.12500000 </v>
   <v>       0.00000000       0.00000000       0.18750000 </v>
   <v>       0.06250000      -0.00000000       0.18750000 </v>
   <v>       0.12500000      -0.00000000       0.18750000 </v>
   <v>       0.18750000      -0.00000000       0.18750000 </v>
   <v>       0.25000000      -0.00000000       0.18750000 </v>
   <v>       0.31250000      -0.00000000       0.18750000 </v>
   <v>       0.37500000      -0.00000000       0.18750000 </v>
   <v>       0.43750000      -0.00000000       0.18750000 </v>
   <v>       0.50000000      -0.00000000       0.18750000 </v>
   <v>       0.00000000       0.06250000       0.18750000 </v>
   <v>       0.06250000       0.06250000       0.18750000 </v>
   <v>       0.12500000       0.06250000       0.18750000 </v>
   <v>       0.18750000       0.06250000       0.18750000 </v>
   <v>       0.25000000       0.06250000       0.18750000 </v>
   <v>       0.31250000       0.06250000       0.18750000 </v>
   <v>       0.37500000       0.06250000       0.18750000 </v>
   <v>       0.43750000       0.06250000       0.18750000 </v>
   <v>       0.50000000       0.06250000       0.18750000 </v>
   <v>      -0.43750000       0.06250000       0.18750000 </v>
   <v>      -0.37500000       0.06250000       0.18750000 </v>
   <v>      -0.31250000       0.06250000       0.18750000 </v>
   <v>      -0.25000000       0.06250000       0.18750000 </v>
   <v>      -0.18750000       0.06250000       0.18750000 </v>
   <v>      -0.12500000       0.06250000       0.18750000 </v>
   <v>       0.00000000       0.12500000       0.18750000 </v>
   <v>       0.06250000       0.12500000       0.18750000 </v>
   <v>       0.12500000       0.12500000       0.18750000 </v>
   <v>       0.18750000       0.12500000       0.18750000 </v>
   <v>       0.25000000       0.12500000       0.18750000 </v>
   <v>       0.31250000       0.12500000       0.18750000 </v>
   <v>       0.37500000       0.12500000       0.18750000 </v>
   <v>       0.43750000       0.12500000       0.18750000 </v>
   <v>       0.50000000       0.12500000       0.18750000 </v>
   <v>      -0.43750000       0.12500000       0.18750000 </v>
   <v>      -0.37500000       0.12500000       0.18750000 </v>
   <v>      -0.31250000       0.12500000       0.18750000 </v>
   <v>      -0.25000000       0.12500000       0.18750000 </v>
   <v>       0.00000000       0.18750000       0.18750000 </v>
   <v>       0.06250000       0.18750000       0.18750000 </v>
   <v>       0.12500000       0.18750000       0.18750000 </v>
   <v>       0.18750000       0.18750000       0.18750000 </v>
   <v>       0.25000000       0.18750000       0.18750000 </v>
   <v>       0.31250000       0.18750000       0.18750000 </v>
   <v>       0.37500000       0.18750000       0.18750000 </v>
   <v>       0.43750000       0.18750000       0.18750000 </v>
   <v>       0.50000000       0.18750000       0.18750000 </v>
   <v>      -0.43750000       0.18750000       0.18750000 </v>
   <v>      -0.37500000       0.18750000       0.18750000 </v>
   <v>       0.00000000       0.25000000       0.18750000 </v>
   <v>       0.06250000       0.25000000       0.18750000 </v>
   <v>       0.12500000       0.25000000       0.18750000 </v>
   <v>       0.18750000       0.25000000       0.18750000 </v>
   <v>       0.25000000       0.25000000       0.18750000 </v>
   <v>       0.31250000       0.25000000       0.18750000 </v>
   <v>       0.37500000       0.25000000       0.18750000 </v>
   <v>       0.43750000       0.25000000       0.18750000 </v>
   <v>       0.50000000       0.25000000       0.18750000 </v>
   <v>       0.00000000       0.31250000       0.18750000 </v>
   <v>       0.06250000       0.31250000       0.18750000 </v>
   <v>       0.12500000       0.31250000       0.18750000 </v>
   <v>       0.18750000       0.31250000       0.18750000 </v>
   <v>       0.25000000       0.31250000       0.18750000 </v>
   <v>       0.31250000       0.31250000       0.18750000 </v>
   <v>       0.37500000       0.31250000       0.18750000 </v>
   <v>       0.00000000       0.37500000       0.18750000 </v>
   <v>       0.06250000       0.37500000       0.18750000 </v>
   <v>       0.12500000       0.37500000       0.18750000 </v>
   <v>       0.18750000       0.37500000       0.18750000 </v>
   <v>       0.25000000       0.37500000       0.18750000 </v>
   <v>       0.00000000       0.43750000       0.18750000 </v>
   <v>       0.06250000       0.43750000       0.18750000 </v>
   <v>       0.12500000       0.43750000       0.18750000 </v>
   <v>       0.00000000       0.50000000       0.18750000 </v>
   <v>       0.00000000       0.00000000       0.25000000 </v>
   <v>       0.06250000      -0.00000000       0.25000000 </v>
   <v>       0.12500000      -0.00000000       0.25000000 </v>
   <v>       0.18750000      -0.00000000       0.25000000 </v>
   <v>       0.25000000      -0.00000000       0.25000000 </v>
   <v>       0.31250000      -0.00000000       0.25000000 </v>
   <v>       0.37500000      -0.00000000       0.25000000 </v>
   <v>       0.43750000      -0.00000000       0.25000000 </v>
   <v>       0.50000000      -0.00000000       0.25000000 </v>
   <v>       0.00000000       0.06250000       0.25000000 </v>
   <v>       0.06250000       0.06250000       0.25000000 </v>
   <v>       0.12500000       0.06250000       0.25000000 </v>
   <v>       0.18750000       0.06250000       0.25000000 </v>
   <v>       0.25000000       0.06250000       0.25000000 </v>
   <v>       0.31250000       0.06250000       0.25000000 </v>
   <v>       0.37500000       0.06250000       0.25000000 </v>
   <v>       0.43750000       0.06250000       0.25000000 </v>
   <v>       0.50000000       0.06250000       0.25000000 </v>
   <v>      -0.43750000       0.06250000       0.25000000 </v>
   <v>      -0.37500000       0.06250000       0.25000000 </v>
   <v>      -0.31250000       0.06250000       0.25000000 </v>
   <v>      -0.25000000       0.06250000       0.25000000 </v>
   <v>      -0.18750000       0.06250000       0.25000000 </v>
   <v>      -0.12500000       0.06250000       0.25000000 </v>
   <v>       0.00000000       0.12500000       0.25000000 </v>
   <v>       0.06250000       0.12500000       0.25000000 </v>
   <v>       0.12500000       0.12500000       0.25000000 </v>
   <v>       0.18750000       0.12500000       0.25000000 </v>
   <v>       0.25000000       0.12500000       0.25000000 </v>
   <v>       0.31250000       0.12500000       0.25000000 </v>
   <v>       0.37500000       0.12500000       0.25000000 </v>
   <v>       0.43750000       0.12500000       0.25000000 </v>
   <v>       0.50000000       0.12500000       0.25000000 </v>
   <v>      -0.43750000       0.12500000       0.25000000 </v>
   <v>      -0.37500000       0.12500000       0.25000000 </v>
   <v>      -0.31250000       0.12500000       0.25000000 </v>
   <v>      -0.25000000       0.12500000       0.25000000 </v>
   <v>       0.00000000       0.18750000       0.25000000 </v>
   <v>       0.06250000       0.18750000       0.25000000 </v>
   <v>       0.12500000       0.18750000       0.25000000 </v>
   <v>       0.18750000       0.18750000       0.25000000 </v>
   <v>       0.25000000       0.18750000       0.25000000 </v>
   <v>       0.31250000       0.18750000       0.25000000 </v>
   <v>       0.37500000       0.18750000       0.25000000 </v>
   <v>       0.43750000       0.18750000       0.25000000 </v>
   <v>       0.50000000       0.18750000       0.25000000 </v>
   <v>      -0.43750000       0.18750000       0.25000000 </v>
   <v>      -0.37500000       0.18750000       0.25000000 </v>
   <v>       0.00000000       0.25000000       0.25000000 </v>
   <v>       0.06250000       0.25000000       0.25000000 </v>
   <v>       0.12500000       0.25000000       0.25000000 </v>
   <v>       0.18750000       0.25000000       0.25000000 </v>
   <v>       0.25000000       0.25000000       0.25000000 </v>
   <v>       0.31250000       0.25000000       0.25000000 </v>
   <v>       0.37500000       0.25000000       0.25000000 </v>
   <v>       0.43750000       0.25000000       0.25000000 </v>
   <v>       0.50000000       0.25000000       0.25000000 </v>
   <v>       0.00000000       0.31250000       0.25000000 </v>
   <v>       0.06250000       0.31250000       0.25000000 </v>
   <v>       0.12500000       0.31250000       0.25000000 </v>
   <v>       0.18750000       0.31250000       0.25000000 </v>
   <v>       0.25000000       0.31250000       0.25000000 </v>
   <v>       0.31250000       0.31250000       0.25000000 </v>
   <v>       0.37500000       0.31250000       0.25000000 </v>
   <v>       0.00000000       0.37500000       0.25000000 </v>
   <v>       0.06250000       0.37500000       0.25000000 </v>
   <v>       0.12500000       0.37500000       0.25000000 </v>
   <v>       0.18750000       0.37500000       0.25000000 </v>
   <v>       0.25000000       0.37500000       0.25000000 </v>
   <v>       0.00000000       0.43750000       0.25000000 </v>
   <v>       0.06250000       0.43750000       0.25000000 </v>
   <v>       0.12500000       0.43750000       0.25000000 </v>
   <v>       0.00000000       0.50000000       0.25000000 </v>
   <v>       0.00000000       0.00000000       0.31250000 </v>
   <v>       0.06250000      -0.00000000       0.31250000 </v>
   <v>       0.12500000      -0.00000000       0.31250000 </v>
   <v>       0.18750000      -0.00000000       0.31250000 </v>
   <v>       0.25000000      -0.00000000       0.31250000 </v>
   <v>       0.31250000      -0.00000000       0.31250000 </v>
   <v>       0.37500000      -0.00000000       0.31250000 </v>
   <v>       0.43750000      -0.00000000       0.31250000 </v>
   <v>       0.50000000      -0.00000000       0.31250000 </v>
   <v>       0.00000000       0.06250000       0.31250000 </v>
   <v>       0.06250000       0.06250000       0.31250000 </v>
   <v>       0.12500000       0.06250000       0.31250000 </v>
   <v>       0.18750000       0.06250000       0.31250000 </v>
   <v>       0.25000000       0.06250000       0.31250000 </v>
   <v>       0.31250000       0.06250000       0.31250000 </v>
   <v>       0.37500000       0.06250000       0.31250000 </v>
   <v>       0.43750000       0.06250000       0.31250000 </v>
   <v>       0.50000000       0.06250000       0.31250000 </v>
   <v>      -0.43750000       0.06250000       0.31250000 </v>
   <v>      -0.37500000       0.06250000       0.31250000 </v>
   <v>      -0.31250000       0.06250000       0.31250000 </v>
   <v>      -0.25000000       0.06250000       0.31250000 </v>
   <v>      -0.18750000       0.06250000       0.31250000 </v>
   <v>      -0.12500000       0.06250000       0.31250000 </v>
   <v>       0.00000000       0.12500000       0.31250000 </v>
   <v>       0.06250000       0.12500000       0.31250000 </v>
   <v>       0.12500000       0.12500000       0.31250000 </v>
   <v>       0.18750000       0.12500000       0.31250000 </v>
   <v>       0.25000000       0.12500000       0.31250000 </v>
   <v>       0.31250000       0.12500000       0.31250000 </v>
   <v>       0.37500000       0.12500000       0.31250000 </v>
   <v>       0.43750000       0.12500000       0.31250000 </v>
   <v>       0.50000000       0.12500000       0.31250000 </v>
   <v>      -0.43750000       0.12500000       0.31250000 </v>
   <v>      -0.37500000       0.12500000       0.31250000 </v>
   <v>      -0.31250000       0.12500000       0.31250000 </v>
   <v>      -0.25000000       0.12500000       0.31250000 </v>
   <v>       0.00000000       0.18750000       0.31250000 </v>
   <v>       0.06250000       0.18750000       0.31250000 </v>
   <v>       0.12500000       0.18750000       0.31250000 </v>
   <v>       0.18750000       0.18750000       0.31250000 </v>
   <v>       0.25000000       0.18750000       0.31250000 </v>
   <v>       0.31250000       0.18750000       0.31250000 </v>
   <v>       0.37500000       0.18750000       0.31250000 </v>
   <v>       0.43750000       0.18750000       0.31250000 </v>
   <v>       0.50000000       0.18750000       0.31250000 </v>
   <v>      -0.43750000       0.18750000       0.31250000 </v>
   <v>      -0.37500000       0.18750000       0.31250000 </v>
   <v>       0.00000000       0.25000000       0.31250000 </v>
   <v>       0.06250000       0.25000000       0.31250000 </v>
   <v>       0.12500000       0.25000000       0.31250000 </v>
   <v>       0.18750000       0.25000000       0.31250000 </v>
   <v>       0.25000000       0.25000000       0.31250000 </v>
   <v>       0.31250000       0.25000000       0.31250000 </v>
   <v>       0.37500000       0.25000000       0.31250000 </v>
   <v>       0.43750000       0.25000000       0.31250000 </v>
   <v>       0.50000000       0.25000000       0.31250000 </v>
   <v>       0.00000000       0.31250000       0.31250000 </v>
   <v>       0.06250000       0.31250000       0.31250000 </v>
   <v>       0.12500000       0.31250000       0.31250000 </v>
   <v>       0.18750000       0.31250000       0.31250000 </v>
   <v>       0.25000000       0.31250000       0.31250000 </v>
   <v>       0.31250000       0.31250000       0.31250000 </v>
   <v>       0.37500000       0.31250000       0.31250000 </v>
   <v>       0.00000000       0.37500000       0.31250000 </v>
   <v>       0.06250000       0.37500000       0.31250000 </v>
   <v>       0.12500000       0.37500000       0.31250000 </v>
   <v>       0.18750000       0.37500000       0.31250000 </v>
   <v>       0.25000000       0.37500000       0.31250000 </v>
   <v>       0.00000000       0.43750000       0.31250000 </v>
   <v>       0.06250000       0.43750000       0.31250000 </v>
   <v>       0.12500000       0.43750000       0.31250000 </v>
   <v>       0.00000000       0.50000000       0.31250000 </v>
   <v>       0.00000000       0.00000000       0.37500000 </v>
   <v>       0.06250000      -0.00000000       0.37500000 </v>
   <v>       0.12500000      -0.00000000       0.37500000 </v>
   <v>       0.18750000      -0.00000000       0.37500000 </v>
   <v>       0.25000000      -0.00000000       0.37500000 </v>
   <v>       0.31250000      -0.00000000       0.37500000 </v>
   <v>       0.37500000      -0.00000000       0.37500000 </v>
   <v>       0.43750000      -0.00000000       0.37500000 </v>
   <v>       0.50000000      -0.00000000       0.37500000 </v>
   <v>       0.00000000       0.06250000       0.37500000 </v>
   <v>       0.06250000       0.06250000       0.37500000 </v>
   <v>       0.12500000       0.06250000       0.37500000 </v>
   <v>       0.18750000       0.06250000       0.37500000 </v>
   <v>       0.25000000       0.06250000       0.37500000 </v>
   <v>       0.31250000       0.06250000       0.37500000 </v>
   <v>       0.37500000       0.06250000       0.37500000 </v>
   <v>       0.43750000       0.06250000       0.37500000 </v>
   <v>       0.50000000       0.06250000       0.37500000 </v>
   <v>      -0.43750000       0.06250000       0.37500000 </v>
   <v>      -0.37500000       0.06250000       0.37500000 </v>
   <v>      -0.31250000       0.06250000       0.37500000 </v>
   <v>      -0.25000000       0.06250000       0.37500000 </v>
   <v>      -0.18750000       0.06250000       0.37500000 </v>
   <v>      -0.12500000       0.06250000       0.37500000 </v>
   <v>       0.00000000       0.12500000       0.37500000 </v>
   <v>       0.06250000       0.12500000       0.37500000 </v>
   <v>       0.12500000       0.12500000       0.37500000 </v>
   <v>       0.18750000       0.12500000       0.37500000 </v>
   <v>       0.25000000       0.12500000       0.37500000 </v>
   <v>       0.31250000       0.12500000       0.37500000 </v>
   <v>       0.37500000       0.12500000       0.37500000 </v>
   <v>       0.43750000       0.12500000       0.37500000 </v>
   <v>       0.50000000       0.12500000       0.37500000 </v>
   <v>      -0.43750000       0.12500000       0.37500000 </v>
   <v>      -0.37500000       0.12500000       0.37500000 </v>
   <v>      -0.31250000       0.12500000       0.37500000 </v>
   <v>      -0.25000000       0.12500000       0.37500000 </v>
   <v>       0.00000000       0.18750000       0.37500000 </v>
   <v>       0.06250000       0.18750000       0.37500000 </v>
   <v>       0.12500000       0.18750000       0.37500000 </v>
   <v>       0.18750000       0.18750000       0.37500000 </v>
   <v>       0.25000000       0.18750000       0.37500000 </v>
   <v>       0.31250000       0.18750000       0.37500000 </v>
   <v>       0.37500000       0.18750000       0.37500000 </v>
   <v>       0.43750000       0.18750000       0.37500000 </v>
   <v>       0.50000000       0.18750000       0.37500000 </v>
   <v>      -0.43750000       0.18750000       0.37500000 </v>
   <v>      -0.37500000       0.18750000       0.37500000 </v>
   <v>       0.00000000       0.25000000       0.37500000 </v>
   <v>       0.06250000       0.25000000       0.37500000 </v>
   <v>       0.12500000       0.25000000       0.37500000 </v>
   <v>       0.18750000       0.25000000       0.37500000 </v>
   <v>       0.25000000       0.25000000       0.37500000 </v>
   <v>       0.31250000       0.25000000       0.37500000 </v>
   <v>       0.37500000       0.25000000       0.37500000 </v>
   <v>       0.43750000       0.25000000       0.37500000 </v>
   <v>       0.50000000       0.25000000       0.37500000 </v>
   <v>       0.00000000       0.31250000       0.37500000 </v>
   <v>       0.06250000       0.31250000       0.37500000 </v>
   <v>       0.12500000       0.31250000       0.37500000 </v>
   <v>       0.18750000       0.31250000       0.37500000 </v>
   <v>       0.25000000       0.31250000       0.37500000 </v>
   <v>       0.31250000       0.31250000       0.37500000 </v>
   <v>       0.37500000       0.31250000       0.37500000 </v>
   <v>       0.00000000       0.37500000       0.37500000 </v>
   <v>       0.06250000       0.37500000       0.37500000 </v>
   <v>       0.12500000       0.37500000       0.37500000 </v>
   <v>       0.18750000       0.37500000       0.37500000 </v>
   <v>       0.25000000       0.37500000       0.37500000 </v>
   <v>       0.00000000       0.43750000       0.37500000 </v>
   <v>       0.06250000       0.43750000       0.37500000 </v>
   <v>       0.12500000       0.43750000       0.37500000 </v>
   <v>       0.00000000       0.50000000       0.37500000 </v>
   <v>       0.00000000       0.00000000       0.43750000 </v>
   <v>       0.06250000      -0.00000000       0.43750000 </v>
   <v>       0.12500000      -0.00000000       0.43750000 </v>
   <v>       0.18750000      -0.00000000       0.43750000 </v>
   <v>       0.25000000      -0.00000000       0.43750000 </v>
   <v>       0.31250000      -0.00000000       0.43750000 </v>
   <v>       0.37500000      -0.00000000       0.43750000 </v>
   <v>       0.43750000      -0.00000000       0.43750000 </v>
   <v>       0.50000000      -0.00000000       0.43750000 </v>
   <v>       0.00000000       0.06250000       0.43750000 </v>
   <v>       0.06250000       0.06250000       0.43750000 </v>
   <v>       0.12500000       0.06250000       0.43750000 </v>
   <v>       0.18750000       0.06250000       0.43750000 </v>
   <v>       0.25000000       0.06250000       0.43750000 </v>
   <v>       0.31250000       0.06250000       0.43750000 </v>
   <v>       0.37500000       0.06250000       0.43750000 </v>
   <v>       0.43750000       0.06250000       0.43750000 </v>
   <v>       0.50000000       0.06250000       0.43750000 </v>
   <v>      -0.43750000       0.06250000       0.43750000 </v>
   <v>      -0.37500000       0.06250000       0.43750000 </v>
   <v>      -0.31250000       0.06250000       0.43750000 </v>
   <v>      -0.25000000       0.06250000       0.43750000 </v>
   <v>      -0.18750000       0.06250000       0.43750000 </v>
   <v>      -0.12500000       0.06250000       0.43750000 </v>
   <v>       0.00000000       0.12500000       0.43750000 </v>
   <v>       0.06250000       0.12500000       0.43750000 </v>
   <v>       0.12500000       0.12500000       0.43750000 </v>
   <v>       0.18750000       0.12500000       0.43750000 </v>
   <v>       0.25000000       0.12500000       0.43750000 </v>
   <v>       0.31250000       0.12500000       0.43750000 </v>
   <v>       0.37500000       0.12500000       0.43750000 </v>
   <v>       0.43750000       0.12500000       0.43750000 </v>
   <v>       0.50000000       0.12500000       0.43750000 </v>
   <v>      -0.43750000       0.12500000       0.43750000 </v>
   <v>      -0.37500000       0.12500000       0.43750000 </v>
   <v>      -0.31250000       0.12500000       0.43750000 </v>
   <v>      -0.25000000       0.12500000       0.43750000 </v>
   <v>       0.00000000       0.18750000       0.43750000 </v>
   <v>       0.06250000       0.18750000       0.43750000 </v>
   <v>       0.12500000       0.18750000       0.43750000 </v>
   <v>       0.18750000       0.18750000       0.43750000 </v>
   <v>       0.25000000       0.18750000       0.43750000 </v>
   <v>       0.31250000       0.18750000       0.43750000 </v>
   <v>       0.37500000       0.18750000       0.43750000 </v>
   <v>       0.43750000       0.18750000       0.43750000 </v>
   <v>       0.50000000       0.18750000       0.43750000 </v>
   <v>      -0.43750000       0.18750000       0.43750000 </v>
   <v>      -0.37500000       0.18750000       0.43750000 </v>
   <v>       0.00000000       0.25000000       0.43750000 </v>
   <v>       0.06250000       0.25000000       0.43750000 </v>
   <v>       0.12500000       0.25000000       0.43750000 </v>
   <v>       0.18750000       0.25000000       0.43750000 </v>
   <v>       0.25000000       0.25000000       0.43750000 </v>
   <v>       0.31250000       0.25000000       0.43750000 </v>
   <v>       0.37500000       0.25000000       0.43750000 </v>
   <v>       0.43750000       0.25000000       0.43750000 </v>
   <v>       0.50000000       0.25000000       0.43750000 </v>
   <v>       0.00000000       0.31250000       0.43750000 </v>
   <v>       0.06250000       0.31250000       0.43750000 </v>
   <v>       0.12500000       0.31250000       0.43750000 </v>
   <v>       0.18750000       0.31250000       0.43750000 </v>
   <v>       0.25000000       0.31250000       0.43750000 </v>
   <v>       0.31250000       0.31250000       0.43750000 </v>
   <v>       0.37500000       0.31250000       0.43750000 </v>
   <v>       0.00000000       0.37500000       0.43750000 </v>
   <v>       0.06250000       0.37500000       0.43750000 </v>
   <v>       0.12500000       0.37500000       0.43750000 </v>
   <v>       0.18750000       0.37500000       0.43750000 </v>
   <v>       0.25000000       0.37500000       0.43750000 </v>
   <v>       0.00000000       0.43750000       0.43750000 </v>
   <v>       0.06250000       0.43750000       0.43750000 </v>
   <v>       0.12500000       0.43750000       0.43750000 </v>
   <v>       0.00000000       0.50000000       0.43750000 </v>
   <v>       0.00000000       0.00000000       0.50000000 </v>
   <v>       0.06250000      -0.00000000       0.50000000 </v>
   <v>       0.12500000      -0.00000000       0.50000000 </v>
   <v>       0.18750000      -0.00000000       0.50000000 </v>
   <v>       0.25000000      -0.00000000       0.50000000 </v>
   <v>       0.31250000      -0.00000000       0.50000000 </v>
   <v>       0.37500000      -0.00000000       0.50000000 </v>
   <v>       0.43750000      -0.00000000       0.50000000 </v>
   <v>       0.50000000      -0.00000000       0.50000000 </v>
   <v>       0.00000000       0.06250000       0.50000000 </v>
   <v>       0.06250000       0.06250000       0.50000000 </v>
   <v>       0.12500000       0.06250000       0.50000000 </v>
   <v>       0.18750000       0.06250000       0.50000000 </v>
   <v>       0.25000000       0.06250000       0.50000000 </v>
   <v>       0.31250000       0.06250000       0.50000000 </v>
   <v>       0.37500000       0.06250000       0.50000000 </v>
   <v>       0.43750000       0.06250000       0.50000000 </v>
   <v>       0.50000000       0.06250000       0.50000000 </v>
   <v>      -0.43750000       0.06250000       0.50000000 </v>
   <v>      -0.37500000       0.06250000       0.50000000 </v>
   <v>      -0.31250000       0.06250000       0.50000000 </v>
   <v>      -0.25000000       0.06250000       0.50000000 </v>
   <v>      -0.18750000       0.06250000       0.50000000 </v>
   <v>      -0.12500000       0.06250000       0.50000000 </v>
   <v>       0.00000000       0.12500000       0.50000000 </v>
   <v>       0.06250000       0.12500000       0.50000000 </v>
   <v>       0.12500000       0.12500000       0.50000000 </v>
   <v>       0.18750000       0.12500000       0.50000000 </v>
   <v>       0.25000000       0.12500000       0.50000000 </v>
   <v>       0.31250000       0.12500000       0.50000000 </v>
   <v>       0.37500000       0.12500000       0.50000000 </v>
   <v>       0.43750000       0.12500000       0.50000000 </v>
   <v>       0.50000000       0.12500000       0.50000000 </v>
   <v>      -0.43750000       0.12500000       0.50000000 </v>
   <v>      -0.37500000       0.12500000       0.50000000 </v>
   <v>      -0.31250000       0.12500000       0.50000000 </v>
   <v>      -0.25000000       0.12500000       0.50000000 </v>
   <v>       0.00000000       0.18750000       0.50000000 </v>
   <v>       0.06250000       0.18750000       0.50000000 </v>
   <v>       0.12500000       0.18750000       0.50000000 </v>
   <v>       0.18750000       0.18750000       0.50000000 </v>
   <v>       0.25000000       0.18750000       0.50000000 </v>
   <v>       0.31250000       0.18750000       0.50000000 </v>
   <v>       0.37500000       0.18750000       0.50000000 </v>
   <v>       0.43750000       0.18750000       0.50000000 </v>
   <v>       0.50000000       0.18750000       0.50000000 </v>
   <v>      -0.43750000       0.18750000       0.50000000 </v>
   <v>      -0.37500000       0.18750000       0.50000000 </v>
   <v>       0.00000000       0.25000000       0.50000000 </v>
   <v>       0.06250000       0.25000000       0.50000000 </v>
   <v>       0.12500000       0.25000000       0.50000000 </v>
   <v>       0.18750000       0.25000000       0.50000000 </v>
   <v>       0.25000000       0.25000000       0.50000000 </v>
   <v>       0.31250000       0.25000000       0.50000000 </v>
   <v>       0.37500000       0.25000000       0.50000000 </v>
   <v>       0.43750000       0.25000000       0.50000000 </v>
   <v>       0.50000000       0.25000000       0.50000000 </v>
   <v>       0.00000000       0.31250000       0.50000000 </v>
   <v>       0.06250000       0.31250000       0.50000000 </v>
   <v>       0.12500000       0.31250000       0.50000000 </v>
   <v>       0.18750000       0.31250000       0.50000000 </v>
   <v>       0.25000000       0.31250000       0.50000000 </v>
   <v>       0.31250000       0.31250000       0.50000000 </v>
   <v>       0.37500000       0.31250000       0.50000000 </v>
   <v>       0.00000000       0.37500000       0.50000000 </v>
   <v>       0.06250000       0.37500000       0.50000000 </v>
   <v>       0.12500000       0.37500000       0.50000000 </v>
   <v>       0.18750000       0.37500000       0.50000000 </v>
   <v>       0.25000000       0.37500000       0.50000000 </v>
   <v>       0.00000000       0.43750000       0.50000000 </v>
   <v>       0.06250000       0.43750000       0.50000000 </v>
   <v>       0.12500000       0.43750000       0.50000000 </v>
   <v>       0.00000000       0.50000000       0.50000000 </v>
  </varray>
  <varray name="weights" >
   <v>       0.00024414 </v>
   <v>       0.00097656 </v>
   <v>       0.00097656 </v>
   <v>       0.00097656 </v>
   <v>       0.00097656 </v>
   <v>       0.00097656 </v>
   <v>       0.00097656 </v>
   <v>       0.00097656 </v>
   <v>       0.00048828 </v>
   <v>       0.00048828 </v>
   <v>       0.00097656 </v>
   <v>       0.00097656 </v>
   <v>       0.00097656 </v>
   <v>       0.00097656 </v>
   <v>       0.00097656 </v>
   <v>       0.00097656 </v>
   <v>       0.00097656 </v>
   <v>       0.00097656 </v>
   <v>       0.00097656 </v>
   <v>       0.00097656 </v>
   <v>       0.00097656 </v>
   <v>       0.00097656 </v>
   <v>       0.00097656 </v>
   <v>       0.00048828 </v>
   <v>       0.00048828 </v>
   <v>       0.00097656 </v>
   <v>       0.00097656 </v>
   <v>       0.00097656 </v>
   <v>       0.00097656 </v>
   <v>       0.00097656 </v>
   <v>       0.00097656 </v>
   <v>       0.00097656 </v>
   <v>       0.00097656 </v>
   <v>       0.00097656 </v>
   <v>       0.00097656 </v>
   <v>       0.00097656 </v>
   <v>       0.00048828 </v>
   <v>       0.00048828 </v>
   <v>       0.00097656 </v>
   <v>       0.00097656 </v>
   <v>       0.00097656 </v>
   <v>       0.00097656 </v>
   <v>       0.00097656 </v>
   <v>       0.00097656 </v>
   <v>       0.00097656 </v>
   <v>       0.00097656 </v>
   <v>       0.00097656 </v>
   <v>       0.00048828 </v>
   <v>       0.00048828 </v>
   <v>       0.00097656 </v>
   <v>       0.00097656 </v>
   <v>       0.00097656 </v>
   <v>       0.00097656 </v>
   <v>       0.00097656 </v>
   <v>       0.00097656 </v>
   <v>       0.00097656 </v>
   <v>       0.00048828 </v>
   <v>       0.00048828 </v>
   <v>       0.00097656 </v>
   <v>       0.00097656 </v>
   <v>       0.00097656 </v>
   <v>       0.00097656 </v>
   <v>       0.00097656 </v>
   <v>       0.00048828 </v>
   <v>       0.00048828 </v>
   <v>       0.00097656 </v>
   <v>       0.00097656 </v>
   <v>       0.00097656 </v>
   <v>       0.00048828 </v>
   <v>       0.00048828 </v>
   <v>       0.00097656 </v>
   <v>       0.00048828 </v>
   <v>       0.00024414 </v>
   <v>       0.00048828 </v>
   <v>       0.00195312 </v>
   <v>       0.00195312 </v>
   <v>       0.00195312 </v>
   <v>       0.00195312 </v>
   <v>       0.00195312 </v>
   <v>       0.00195312 </v>
   <v>       0.00195312 </v>
   <v>       0.00097656 </v>
   <v>       0.00097656 </v>
   <v>       0.00195312 </v>
   <v>       0.00195312 </v>
   <v>       0.00195312 </v>
   <v>       0.00195312 </v>
   <v>       0.00195312 </v>
   <v>       0.00195312 </v>
   <v>       0.00195312 </v>
   <v>       0.00195312 </v>
   <v>       0.00195312 </v>
   <v>       0.00195312 </v>
   <v>       0.00195312 </v>
   <v>       0.00195312 </v>
   <v>       0.00195312 </v>
   <v>       0.00097656 </v>
   <v>       0.00097656 </v>
   <v>       0.00195312 </v>
   <v>       0.00195312 </v>
   <v>       0.00195312 </v>
   <v>       0.00195312 </v>
   <v>       0.00195312 </v>
   <v>       0.00195312 </v>
   <v>       0.00195312 </v>
   <v>       0.00195312 </v>
   <v>       0.00195312 </v>
   <v>       0.00195312 </v>
   <v>       0.00195312 </v>
   <v>       0.00097656 </v>
   <v>       0.00097656 </v>
   <v>       0.00195312 </v>
   <v>       0.00195312 </v>
   <v>       0.00195312 </v>
   <v>       0.00195312 </v>
   <v>       0.00195312 </v>
   <v>       0.00195312 </v>
   <v>       0.00195312 </v>
   <v>       0.00195312 </v>
   <v>       0.00195312 </v>
   <v>       0.00097656 </v>
   <v>       0.00097656 </v>
   <v>       0.00195312 </v>
   <v>       0.00195312 </v>
   <v>       0.00195312 </v>
   <v>       0.00195312 </v>
   <v>       0.00195312 </v>
   <v>       0.00195312 </v>
   <v>       0.00195312 </v>
   <v>       0.00097656 </v>
   <v>       0.00097656 </v>
   <v>       0.00195312 </v>
   <v>       0.00195312 </v>
   <v>       0.00195312 </v>
   <v>       0.00195312 </v>
   <v>       0.00195312 </v>
   <v>       0.00097656 </v>
   <v>       0.00097656 </v>
   <v>       0.00195312 </v>
   <v>       0.00195312 </v>
   <v>       0.00195312 </v>
   <v>       0.00097656 </v>
   <v>       0.00097656 </v>
   <v>       0.00195312 </v>
   <v>       0.00097656 </v>
   <v>       0.00048828 </v>
   <v>       0.00048828 </v>
   <v>       0.00195312 </v>
   <v>       0.00195312 </v>
   <v>       0.00195312 </v>
   <v>       0.00195312 </v>
   <v>       0.00195312 </v>
   <v>       0.00195312 </v>
   <v>       0.00195312 </v>
   <v>       0.00097656 </v>
   <v>       0.00097656 </v>
   <v>       0.00195312 </v>
   <v>       0.00195312 </v>
   <v>       0.00195312 </v>
   <v>       0.00195312 </v>
   <v>       0.00195312 </v>
   <v>       0.00195312 </v>
   <v>       0.00195312 </v>
   <v>       0.00195312 </v>
   <v>       0.00195312 </v>
   <v>       0.00195312 </v>
   <v>       0.00195312 </v>
   <v>       0.00195312 </v>
   <v>       0.00195312 </v>
   <v>       0.00097656 </v>
   <v>       0.00097656 </v>
   <v>       0.00195312 </v>
   <v>       0.00195312 </v>
   <v>       0.00195312 </v>
   <v>       0.00195312 </v>
   <v>       0.00195312 </v>
   <v>       0.00195312 </v>
   <v>       0.00195312 </v>
   <v>       0.00195312 </v>
   <v>       0.00195312 </v>
   <v>       0.00195312 </v>
   <v>       0.00195312 </v>
   <v>       0.00097656 </v>
   <v>       0.00097656 </v>
   <v>       0.00195312 </v>
   <v>       0.00195312 </v>
   <v>       0.00195312 </v>
   <v>       0.00195312 </v>
   <v>       0.00195312 </v>
   <v>       0.00195312 </v>
   <v>       0.00195312 </v>
   <v>       0.00195312 </v>
   <v>       0.00195312 </v>
   <v>       0.00097656 </v>
   <v>       0.00097656 </v>
   <v>       0.00195312 </v>
   <v>       0.00195312 </v>
   <v>       0.00195312 </v>
   <v>       0.00195312 </v>
   <v>       0.00195312 </v>
   <v>       0.00195312 </v>
   <v>       0.00195312 </v>
   <v>       0.00097656 </v>
   <v>       0.00097656 </v>
   <v>       0.00195312 </v>
   <v>       0.00195312 </v>
   <v>       0.00195312 </v>
   <v>       0.00195312 </v>
   <v>       0.00195312 </v>
   <v>       0.00097656 </v>
   <v>       0.00097656 </v>
   <v>       0.00195312 </v>
   <v>       0.00195312 </v>
   <v>       0.00195312 </v>
   <v>       0.00097656 </v>
   <v>       0.00097656 </v>
   <v>       0.00195312 </v>
   <v>       0.00097656 </v>
   <v>       0.00048828 </v>
   <v>       0.00048828 </v>
   <v>       0.00195312 </v>
   <v>       0.00195312 </v>
   <v>       0.00195312 </v>
   <v>       0.00195312 </v>
   <v>       0.00195312 </v>
   <v>       0.00195312 </v>
   <v>       0.00195312 </v>
   <v>       0.00097656 </v>
   <v>       0.00097656 </v>
   <v>       0.00195312 </v>
   <v>       0.00195312 </v>
   <v>       0.00195312 </v>
   <v>       0.00195312 </v>
   <v>       0.00195312 </v>
   <v>       0.00195312 </v>
   <v>       0.00195312 </v>
   <v>       0.00195312 </v>
   <v>       0.00195312 </v>
   <v>       0.00195312 </v>
   <v>       0.00195312 </v>
   <v>       0.00195312 </v>
   <v>       0.00195312 </v>
   <v>       0.00097656 </v>
   <v>       0.00097656 </v>
   <v>       0.00195312 </v>
   <v>       0.00195312 </v>
   <v>       0.00195312 </v>
   <v>       0.00195312 </v>
   <v>       0.00195312 </v>
   <v>       0.00195312 </v>
   <v>       0.00195312 </v>
   <v>       0.00195312 </v>
   <v>       0.00195312 </v>
   <v>       0.00195312 </v>
   <v>       0.00195312 </v>
   <v>       0.00097656 </v>
   <v>       0.00097656 </v>
   <v>       0.00195312 </v>
   <v>       0.00195312 </v>
   <v>       0.00195312 </v>
   <v>       0.00195312 </v>
   <v>       0.00195312 </v>
   <v>       0.00195312 </v>
   <v>       0.00195312 </v>
   <v>       0.00195312 </v>
   <v>       0.00195312 </v>
   <v>       0.00097656 </v>
   <v>       0.00097656 </v>
   <v>       0.00195312 </v>
   <v>       0.00195312 </v>
   <v>       0.00195312 </v>
   <v>       0.00195312 </v>
   <v>       0.00195312 </v>
   <v>       0.00195312 </v>
   <v>       0.00195312 </v>
   <v>       0.00097656 </v>
   <v>       0.00097656 </v>
   <v>       0.00195312 </v>
   <v>       0.00195312 </v>
   <v>       0.00195312 </v>
   <v>       0.00195312 </v>
   <v>       0.00195312 </v>
   <v>       0.00097656 </v>
   <v>       0.00097656 </v>
   <v>       0.00195312 </v>
   <v>       0.00195312 </v>
   <v>       0.00195312 </v>
   <v>       0.00097656 </v>
   <v>       0.00097656 </v>
   <v>       0.00195312 </v>
   <v>       0.00097656 </v>
   <v>       0.00048828 </v>
   <v>       0.00048828 </v>
   <v>       0.00195312 </v>
   <v>       0.00195312 </v>
   <v>       0.00195312 </v>
   <v>       0.00195312 </v>
   <v>       0.00195312 </v>
   <v>       0.00195312 </v>
   <v>       0.00195312 </v>
   <v>       0.00097656 </v>
   <v>       0.00097656 </v>
   <v>       0.00195312 </v>
   <v>       0.00195312 </v>
   <v>       0.00195312 </v>
   <v>       0.00195312 </v>
   <v>       0.00195312 </v>
   <v>       0.00195312 </v>
   <v>       0.00195312 </v>
   <v>       0.00195312 </v>
   <v>       0.00195312 </v>
   <v>       0.00195312 </v>
   <v>       0.00195312 </v>
   <v>       0.00195312 </v>
   <v>       0.00195312 </v>
   <v>       0.00097656 </v>
   <v>       0.00097656 </v>
   <v>       0.00195312 </v>
   <v>       0.00195312 </v>
   <v>       0.00195312 </v>
   <v>       0.00195312 </v>
   <v>       0.00195312 </v>
   <v>       0.00195312 </v>
   <v>       0.00195312 </v>
   <v>       0.00195312 </v>
   <v>       0.00195312 </v>
   <v>       0.00195312 </v>
   <v>       0.00195312 </v>
   <v>       0.00097656 </v>
   <v>       0.00097656 </v>
   <v>       0.00195312 </v>
   <v>       0.00195312 </v>
   <v>       0.00195312 </v>
   <v>       0.00195312 </v>
   <v>       0.00195312 </v>
   <v>       0.00195312 </v>
   <v>       0.00195312 </v>
   <v>       0.00195312 </v>
   <v>       0.00195312 </v>
   <v>       0.00097656 </v>
   <v>       0.00097656 </v>
   <v>       0.00195312 </v>
   <v>       0.00195312 </v>
   <v>       0.00195312 </v>
   <v>       0.00195312 </v>
   <v>       0.00195312 </v>
   <v>       0.00195312 </v>
   <v>       0.00195312 </v>
   <v>       0.00097656 </v>
   <v>       0.00097656 </v>
   <v>       0.00195312 </v>
   <v>       0.00195312 </v>
   <v>       0.00195312 </v>
   <v>       0.00195312 </v>
   <v>       0.00195312 </v>
   <v>       0.00097656 </v>
   <v>       0.00097656 </v>
   <v>       0.00195312 </v>
   <v>       0.00195312 </v>
   <v>       0.00195312 </v>
   <v>       0.00097656 </v>
   <v>       0.00097656 </v>
   <v>       0.00195312 </v>
   <v>       0.00097656 </v>
   <v>       0.00048828 </v>
   <v>       0.00048828 </v>
   <v>       0.00195312 </v>
   <v>       0.00195312 </v>
   <v>       0.00195312 </v>
   <v>       0.00195312 </v>
   <v>       0.00195312 </v>
   <v>       0.00195312 </v>
   <v>       0.00195312 </v>
   <v>       0.00097656 </v>
   <v>       0.00097656 </v>
   <v>       0.00195312 </v>
   <v>       0.00195312 </v>
   <v>       0.00195312 </v>
   <v>       0.00195312 </v>
   <v>       0.00195312 </v>
   <v>       0.00195312 </v>
   <v>       0.00195312 </v>
   <v>       0.00195312 </v>
   <v>       0.00195312 </v>
   <v>       0.00195312 </v>
   <v>       0.00195312 </v>
   <v>       0.00195312 </v>
   <v>       0.00195312 </v>
   <v>       0.00097656 </v>
   <v>       0.00097656 </v>
   <v>       0.00195312 </v>
   <v>       0.00195312 </v>
   <v>       0.00195312 </v>
   <v>       0.00195312 </v>
   <v>       0.00195312 </v>
   <v>       0.00195312 </v>
   <v>       0.00195312 </v>
   <v>       0.00195312 </v>
   <v>       0.00195312 </v>
   <v>       0.00195312 </v>
   <v>       0.00195312 </v>
   <v>       0.00097656 </v>
   <v>       0.00097656 </v>
   <v>       0.00195312 </v>
   <v>       0.00195312 </v>
   <v>       0.00195312 </v>
   <v>       0.00195312 </v>
   <v>       0.00195312 </v>
   <v>       0.00195312 </v>
   <v>       0.00195312 </v>
   <v>       0.00195312 </v>
   <v>       0.00195312 </v>
   <v>       0.00097656 </v>
   <v>       0.00097656 </v>
   <v>       0.00195312 </v>
   <v>       0.00195312 </v>
   <v>       0.00195312 </v>
   <v>       0.00195312 </v>
   <v>       0.00195312 </v>
   <v>       0.00195312 </v>
   <v>       0.00195312 </v>
   <v>       0.00097656 </v>
   <v>       0.00097656 </v>
   <v>       0.00195312 </v>
   <v>       0.00195312 </v>
   <v>       0.00195312 </v>
   <v>       0.00195312 </v>
   <v>       0.00195312 </v>
   <v>       0.00097656 </v>
   <v>       0.00097656 </v>
   <v>       0.00195312 </v>
   <v>       0.00195312 </v>
   <v>       0.00195312 </v>
   <v>       0.00097656 </v>
   <v>       0.00097656 </v>
   <v>       0.00195312 </v>
   <v>       0.00097656 </v>
   <v>       0.00048828 </v>
   <v>       0.00048828 </v>
   <v>       0.00195312 </v>
   <v>       0.00195312 </v>
   <v>       0.00195312 </v>
   <v>       0.00195312 </v>
   <v>       0.00195312 </v>
   <v>       0.00195312 </v>
   <v>       0.00195312 </v>
   <v>       0.00097656 </v>
   <v>       0.00097656 </v>
   <v>       0.00195312 </v>
   <v>       0.00195312 </v>
   <v>       0.00195312 </v>
   <v>       0.00195312 </v>
   <v>       0.00195312 </v>
   <v>       0.00195312 </v>
   <v>       0.00195312 </v>
   <v>       0.00195312 </v>
   <v>       0.00195312 </v>
   <v>       0.00195312 </v>
   <v>       0.00195312 </v>
   <v>       0.00195312 </v>
   <v>       0.00195312 </v>
   <v>       0.00097656 </v>
   <v>       0.00097656 </v>
   <v>       0.00195312 </v>
   <v>       0.00195312 </v>
   <v>       0.00195312 </v>
   <v>       0.00195312 </v>
   <v>       0.00195312 </v>
   <v>       0.00195312 </v>
   <v>       0.00195312 </v>
   <v>       0.00195312 </v>
   <v>       0.00195312 </v>
   <v>       0.00195312 </v>
   <v>       0.00195312 </v>
   <v>       0.00097656 </v>
   <v>       0.00097656 </v>
   <v>       0.00195312 </v>
   <v>       0.00195312 </v>
   <v>       0.00195312 </v>
   <v>       0.00195312 </v>
   <v>       0.00195312 </v>
   <v>       0.00195312 </v>
   <v>       0.00195312 </v>
   <v>       0.00195312 </v>
   <v>       0.00195312 </v>
   <v>       0.00097656 </v>
   <v>       0.00097656 </v>
   <v>       0.00195312 </v>
   <v>       0.00195312 </v>
   <v>       0.00195312 </v>
   <v>       0.00195312 </v>
   <v>       0.00195312 </v>
   <v>       0.00195312 </v>
   <v>       0.00195312 </v>
   <v>       0.00097656 </v>
   <v>       0.00097656 </v>
   <v>       0.00195312 </v>
   <v>       0.00195312 </v>
   <v>       0.00195312 </v>
   <v>       0.00195312 </v>
   <v>       0.00195312 </v>
   <v>       0.00097656 </v>
   <v>       0.00097656 </v>
   <v>       0.00195312 </v>
   <v>       0.00195312 </v>
   <v>       0.00195312 </v>
   <v>       0.00097656 </v>
   <v>       0.00097656 </v>
   <v>       0.00195312 </v>
   <v>       0.00097656 </v>
   <v>       0.00048828 </v>
   <v>       0.00048828 </v>
   <v>       0.00195312 </v>
   <v>       0.00195312 </v>
   <v>       0.00195312 </v>
   <v>       0.00195312 </v>
   <v>       0.00195312 </v>
   <v>       0.00195312 </v>
   <v>       0.00195312 </v>
   <v>       0.00097656 </v>
   <v>       0.00097656 </v>
   <v>       0.00195312 </v>
   <v>       0.00195312 </v>
   <v>       0.00195312 </v>
   <v>       0.00195312 </v>
   <v>       0.00195312 </v>
   <v>       0.00195312 </v>
   <v>       0.00195312 </v>
   <v>       0.00195312 </v>
   <v>       0.00195312 </v>
   <v>       0.00195312 </v>
   <v>       0.00195312 </v>
   <v>       0.00195312 </v>
   <v>       0.00195312 </v>
   <v>       0.00097656 </v>
   <v>       0.00097656 </v>
   <v>       0.00195312 </v>
   <v>       0.00195312 </v>
   <v>       0.00195312 </v>
   <v>       0.00195312 </v>
   <v>       0.00195312 </v>
   <v>       0.00195312 </v>
   <v>       0.00195312 </v>
   <v>       0.00195312 </v>
   <v>       0.00195312 </v>
   <v>       0.00195312 </v>
   <v>       0.00195312 </v>
   <v>       0.00097656 </v>
   <v>       0.00097656 </v>
   <v>       0.00195312 </v>
   <v>       0.00195312 </v>
   <v>       0.00195312 </v>
   <v>       0.00195312 </v>
   <v>       0.00195312 </v>
   <v>       0.00195312 </v>
   <v>       0.00195312 </v>
   <v>       0.00195312 </v>
   <v>       0.00195312 </v>
   <v>       0.00097656 </v>
   <v>       0.00097656 </v>
   <v>       0.00195312 </v>
   <v>       0.00195312 </v>
   <v>       0.00195312 </v>
   <v>       0.00195312 </v>
   <v>       0.00195312 </v>
   <v>       0.00195312 </v>
   <v>       0.00195312 </v>
   <v>       0.00097656 </v>
   <v>       0.00097656 </v>
   <v>       0.00195312 </v>
   <v>       0.00195312 </v>
   <v>       0.00195312 </v>
   <v>       0.00195312 </v>
   <v>       0.00195312 </v>
   <v>       0.00097656 </v>
   <v>       0.00097656 </v>
   <v>       0.00195312 </v>
   <v>       0.00195312 </v>
   <v>       0.00195312 </v>
   <v>       0.00097656 </v>
   <v>       0.00097656 </v>
   <v>       0.00195312 </v>
   <v>       0.00097656 </v>
   <v>       0.00048828 </v>
   <v>       0.00024414 </v>
   <v>       0.00097656 </v>
   <v>       0.00097656 </v>
   <v>       0.00097656 </v>
   <v>       0.00097656 </v>
   <v>       0.00097656 </v>
   <v>       0.00097656 </v>
   <v>       0.00097656 </v>
   <v>       0.00048828 </v>
   <v>       0.00048828 </v>
   <v>       0.00097656 </v>
   <v>       0.00097656 </v>
   <v>       0.00097656 </v>
   <v>       0.00097656 </v>
   <v>       0.00097656 </v>
   <v>       0.00097656 </v>
   <v>       0.00097656 </v>
   <v>       0.00097656 </v>
   <v>       0.00097656 </v>
   <v>       0.00097656 </v>
   <v>       0.00097656 </v>
   <v>       0.00097656 </v>
   <v>       0.00097656 </v>
   <v>       0.00048828 </v>
   <v>       0.00048828 </v>
   <v>       0.00097656 </v>
   <v>       0.00097656 </v>
   <v>       0.00097656 </v>
   <v>       0.00097656 </v>
   <v>       0.00097656 </v>
   <v>       0.00097656 </v>
   <v>       0.00097656 </v>
   <v>       0.00097656 </v>
   <v>       0.00097656 </v>
   <v>       0.00097656 </v>
   <v>       0.00097656 </v>
   <v>       0.00048828 </v>
   <v>       0.00048828 </v>
   <v>       0.00097656 </v>
   <v>       0.00097656 </v>
   <v>       0.00097656 </v>
   <v>       0.00097656 </v>
   <v>       0.00097656 </v>
   <v>       0.00097656 </v>
   <v>       0.00097656 </v>
   <v>       0.00097656 </v>
   <v>       0.00097656 </v>
   <v>       0.00048828 </v>
   <v>       0.00048828 </v>
   <v>       0.00097656 </v>
   <v>       0.00097656 </v>
   <v>       0.00097656 </v>
   <v>       0.00097656 </v>
   <v>       0.00097656 </v>
   <v>       0.00097656 </v>
   <v>       0.00097656 </v>
   <v>       0.00048828 </v>
   <v>       0.00048828 </v>
   <v>       0.00097656 </v>
   <v>       0.00097656 </v>
   <v>       0.00097656 </v>
   <v>       0.00097656 </v>
   <v>       0.00097656 </v>
   <v>       0.00048828 </v>
   <v>       0.00048828 </v>
   <v>       0.00097656 </v>
   <v>       0.00097656 </v>
   <v>       0.00097656 </v>
   <v>       0.00048828 </v>
   <v>       0.00048828 </v>
   <v>       0.00097656 </v>
   <v>       0.00048828 </v>
   <v>       0.00024414 </v>
  </varray>
 </kpoints>
 <parameters>
  <separator name="general" >
   <i type="string" name="SYSTEM">unknown system</i>
   <i type="logical" name="LCOMPAT"> F  </i>
  </separator>
  <separator name="electronic" >
   <i type="string" name="PREC">accura</i>
   <i name="ENMAX">    600.00000000</i>
   <i name="ENAUG">    535.51400000</i>
   <i name="EDIFF">      0.00000100</i>
   <i type="int" name="IALGO">    48</i>
   <i type="int" name="IWAVPR">    11</i>
   <i type="int" name="NBANDS">    12</i>
   <i name="NELECT">     10.00000000</i>
   <i type="int" name="TURBO">     0</i>
   <i type="int" name="IRESTART">     0</i>
   <i type="int" name="NREBOOT">     0</i>
   <i type="int" name="NMIN">     0</i>
   <i name="EREF">      0.00000000</i>
   <separator name="electronic smearing" >
    <i type="int" name="ISMEAR">     0</i>
    <i name="SIGMA">      0.05000000</i>
    <i name="KSPACING">      0.50000000</i>
    <i type="logical" name="KGAMMA"> T  </i>
   </separator>
   <separator name="electronic projectors" >
    <i type="logical" name="LREAL"> F  </i>
    <v name="ROPT">      0.00000000      0.00000000</v>
    <i type="int" name="LMAXPAW">  -100</i>
    <i type="int" name="LMAXMIX">     2</i>
    <i type="logical" name="NLSPLINE"> F  </i>
   </separator>
   <separator name="electronic startup" >
    <i type="int" name="ISTART">     0</i>
    <i type="int" name="ICHARG">     2</i>
    <i type="int" name="INIWAV">     1</i>
   </separator>
   <separator name="electronic spin" >
    <i type="int" name="ISPIN">     1</i>
    <i type="logical" name="LNONCOLLINEAR"> F  </i>
    <v name="MAGMOM">      1.00000000      1.00000000      1.00000000</v>
    <i name="NUPDOWN">     -1.00000000</i>
    <i type="logical" name="LSORBIT"> F  </i>
    <v name="SAXIS">      0.00000000      0.00000000      1.00000000</v>
    <i type="logical" name="LSPIRAL"> F  </i>
    <v name="QSPIRAL">      0.00000000      0.00000000      0.00000000</v>
    <i type="logical" name="LZEROZ"> F  </i>
   </separator>
   <separator name="electronic exchange-correlation" >
    <i type="logical" name="LASPH"> F  </i>
    <i type="logical" name="LMETAGGA"> F  </i>
   </separator>
   <separator name="electronic convergence" >
    <i type="int" name="NELM">    60</i>
    <i type="int" name="NELMDL">   -12</i>
    <i type="int" name="NELMIN">     2</i>
    <i name="ENINI">    600.00000000</i>
    <separator name="electronic convergence detail" >
     <i type="logical" name="LDIAG"> T  </i>
     <i type="logical" name="LSUBROT"> F  </i>
     <i name="WEIMIN">      0.00100000</i>
     <i name="EBREAK">      0.00000002</i>
     <i name="DEPER">      0.30000000</i>
     <i type="int" name="NRMM">     4</i>
     <i name="TIME">      0.40000000</i>
    </separator>
   </separator>
   <separator name="electronic mixer" >
    <i name="AMIX">      0.40000000</i>
    <i name="BMIX">      1.00000000</i>
    <i name="AMIN">      0.10000000</i>
    <i name="AMIX_MAG">      1.60000000</i>
    <i name="BMIX_MAG">      1.00000000</i>
    <separator name="electronic mixer details" >
     <i type="int" name="IMIX">     4</i>
     <i type="logical" name="MIXFIRST"> F  </i>
     <i type="int" name="MAXMIX">   -45</i>
     <i name="WC">    100.00000000</i>
     <i type="int" name="INIMIX">     1</i>
     <i type="int" name="MIXPRE">     1</i>
     <i type="int" name="MREMOVE">     5</i>
    </separator>
   </separator>
   <separator name="electronic dipolcorrection" >
    <i type="logical" name="LDIPOL"> F  </i>
    <i type="logical" name="LMONO"> F  </i>
    <i type="int" name="IDIPOL">     0</i>
    <i name="EPSILON">      1.00000000</i>
    <v name="DIPOL">   -100.00000000   -100.00000000   -100.00000000</v>
    <i name="EFIELD">      0.00000000</i>
   </separator>
  </separator>
  <separator name="grids" >
   <i type="int" name="NGX">    24</i>
   <i type="int" name="NGY">    24</i>
   <i type="int" name="NGZ">    28</i>
   <i type="int" name="NGXF">    48</i>
   <i type="int" name="NGYF">    48</i>
   <i type="int" name="NGZF">    56</i>
   <i type="logical" name="ADDGRID"> F  </i>
  </separator>
  <separator name="ionic" >
   <i type="int" name="NSW">    50</i>
   <i type="int" name="IBRION">     1</i>
   <i type="int" name="MDALGO">     0</i>
   <i type="int" name="ISIF">     2</i>
   <i name="PSTRESS">      0.00000000</i>
   <i name="EDIFFG">      0.00001000</i>
   <i type="int" name="NFREE">     0</i>
   <i name="POTIM">      0.50000000</i>
   <i name="SMASS">     -3.00000000</i>
   <i name="SCALEE">      1.00000000</i>
  </separator>
  <separator name="ionic md" >
   <i name="TEBEG">      0.00010000</i>
   <i name="TEEND">      0.00010000</i>
   <i type="int" name="NBLOCK">     1</i>
   <i type="int" name="KBLOCK">    50</i>
   <i type="int" name="NPACO">   256</i>
   <i name="APACO">     16.00000000</i>
  </separator>
  <separator name="symmetry" >
   <i type="int" name="ISYM">     2</i>
   <i name="SYMPREC">      0.00001000</i>
  </separator>
  <separator name="dos" >
   <i type="int" name="LORBIT">     0</i>
   <v name="RWIGS">     -1.00000000     -1.00000000</v>
   <i type="int" name="NEDOS">   301</i>
   <i name="EMIN">     10.00000000</i>
   <i name="EMAX">    -10.00000000</i>
   <i name="EFERMI">      0.00000000</i>
  </separator>
  <separator name="writing" >
   <i type="int" name="NWRITE">     2</i>
   <i type="logical" name="LWAVE"> F  </i>
   <i type="logical" name="LDOWNSAMPLE"> F  </i>
   <i type="logical" name="LCHARG"> F  </i>
   <i type="logical" name="LPARD"> F  </i>
   <i type="logical" name="LVTOT"> F  </i>
   <i type="logical" name="LVHAR"> F  </i>
   <i type="logical" name="LELF"> F  </i>
   <i type="logical" name="LOPTICS"> F  </i>
   <v name="STM">      0.00000000      0.00000000      0.00000000      0.00000000      0.00000000      0.00000000      0.00000000</v>
  </separator>
  <separator name="performance" >
   <i type="int" name="NPAR">     4</i>
   <i type="int" name="NSIM">     4</i>
   <i type="int" name="NBLK">    -1</i>
   <i type="logical" name="LPLANE"> T  </i>
   <i type="logical" name="LSCALAPACK"> T  </i>
   <i type="logical" name="LSCAAWARE"> F  </i>
   <i type="logical" name="LSCALU"> F  </i>
   <i type="logical" name="LASYNC"> F  </i>
   <i type="logical" name="LORBITALREAL"> F  </i>
  </separator>
  <separator name="miscellaneous" >
   <i type="int" name="IDIOT">     3</i>
   <i type="int" name="ISPECIAL">     0</i>
   <i type="logical" name="LMUSIC"> F  </i>
   <v name="POMASS">     47.88000000     10.81100000</v>
   <v name="DARWINR">      0.00000000      0.00000000</v>
   <v name="DARWINV">      1.00000000      1.00000000</v>
   <i type="logical" name="LCORR"> T  </i>
  </separator>
  <i type="logical" name="GGA_COMPAT"> T  </i>
  <i type="logical" name="LBERRY"> F  </i>
  <i type="int" name="ICORELEVEL">     0</i>
  <i type="logical" name="LDAU"> F  </i>
  <i type="int" name="I_CONSTRAINED_M">     0</i>
  <separator name="electronic exchange-correlation" >
   <i type="string" name="GGA">--</i>
   <i type="int" name="VOSKOWN">     0</i>
   <i type="logical" name="LHFCALC"> F  </i>
   <i type="string" name="PRECFOCK"></i>
   <i type="logical" name="LSYMGRAD"> F  </i>
   <i type="logical" name="LHFONE"> F  </i>
   <i type="logical" name="LRHFCALC"> F  </i>
   <i type="logical" name="LTHOMAS"> F  </i>
   <i type="logical" name="LMODELHF"> F  </i>
   <i name="ENCUT4O">     -1.00000000</i>
   <i type="int" name="EXXOEP">     0</i>
   <i type="int" name="FOURORBIT">     0</i>
   <i name="AEXX">      0.00000000</i>
   <i name="HFALPHA">      0.00000000</i>
   <i name="MCALPHA">      0.00000000</i>
   <i name="ALDAX">      1.00000000</i>
   <i name="AGGAX">      1.00000000</i>
   <i name="ALDAC">      1.00000000</i>
   <i name="AGGAC">      1.00000000</i>
   <i type="int" name="NKREDX">     1</i>
   <i type="int" name="NKREDY">     1</i>
   <i type="int" name="NKREDZ">     1</i>
   <i type="logical" name="SHIFTRED"> F  </i>
   <i type="logical" name="ODDONLY"> F  </i>
   <i type="logical" name="EVENONLY"> F  </i>
   <i type="int" name="LMAXFOCK">     0</i>
   <i type="int" name="NMAXFOCKAE">     0</i>
   <i type="logical" name="LFOCKAEDFT"> F  </i>
   <i name="HFSCREEN">      0.00000000</i>
   <i name="HFSCREENC">      0.00000000</i>
   <i type="int" name="NBANDSGWLOW">     0</i>
  </separator>
  <separator name="vdW DFT" >
   <i type="logical" name="LUSE_VDW"> F  </i>
   <i name="Zab_VDW">     -0.84910000</i>
   <i name="PARAM1">      0.12340000</i>
   <i name="PARAM2">      1.00000000</i>
   <i name="PARAM3">      0.00000000</i>
  </separator>
  <separator name="model GW" >
   <i type="int" name="MODEL_GW">     0</i>
   <i name="MODEL_EPS0">      4.83100309</i>
   <i name="MODEL_ALPHA">      1.00000000</i>
  </separator>
  <separator name="linear response parameters" >
   <i type="logical" name="LEPSILON"> F  </i>
   <i type="logical" name="LRPA"> F  </i>
   <i type="logical" name="LNABLA"> F  </i>
   <i type="logical" name="LVEL"> F  </i>
   <i type="int" name="KINTER">     0</i>
   <i name="CSHIFT">      0.10000000</i>
   <i name="OMEGAMAX">     -1.00000000</i>
   <i name="DEG_THRESHOLD">      0.00200000</i>
   <i name="RTIME">     -0.10000000</i>
   <i name="WPLASMAI">      0.00000000</i>
   <v name="DFIELD">      0.00000000      0.00000000      0.00000000</v>
   <v name="WPLASMA">      0.00000000      0.00000000      0.00000000      0.00000000      0.00000000      0.00000000      0.00000000      0.00000000      0.00000000</v>
  </separator>
  <separator name="orbital magnetization" >
   <i type="logical" name="NUCIND"> F  </i>
   <v name="MAGPOS">      0.00000000      0.00000000      0.00000000</v>
   <i type="logical" name="LNICSALL"> T  </i>
   <i type="logical" name="ORBITALMAG"> F  </i>
   <i type="logical" name="LMAGBLOCH"> F  </i>
   <i type="logical" name="LCHIMAG"> F  </i>
   <i type="logical" name="LGAUGE"> T  </i>
   <i type="int" name="MAGATOM">     0</i>
   <v name="MAGDIPOL">      0.00000000      0.00000000      0.00000000</v>
   <v name="AVECCONST">      0.00000000      0.00000000      0.00000000</v>
  </separator>
  <separator name="response functions" >
   <i type="logical" name="LADDER"> F  </i>
   <i type="logical" name="LRPAFORCE"> F  </i>
   <i type="logical" name="LFXC"> F  </i>
   <i type="logical" name="LHARTREE"> T  </i>
   <i type="int" name="IBSE">     0</i>
   <v type="int" name="KPOINT">    -1     0     0     0</v>
   <i type="logical" name="LTCTE"> F  </i>
   <i type="logical" name="LTETE"> F  </i>
   <i type="logical" name="LTRIPLET"> F  </i>
   <i type="logical" name="LFXCEPS"> F  </i>
   <i type="logical" name="LFXHEG"> F  </i>
   <i type="int" name="NATURALO">     2</i>
   <i type="logical" name="L2ORDER"> F  </i>
   <i type="logical" name="LMP2LT"> F  </i>
   <i type="logical" name="LUSEW"> F  </i>
   <i name="ENCUTGW">     -2.00000000</i>
   <i name="ENCUTGWSOFT">     -2.00000000</i>
   <i name="ENCUTLF">     -1.00000000</i>
   <i type="int" name="LMAXMP2">    -1</i>
   <i name="SCISSOR">      0.00000000</i>
   <i type="int" name="NOMEGA">     0</i>
   <i type="int" name="NOMEGAR">     0</i>
   <i type="int" name="NBANDSGW">    -1</i>
   <i type="int" name="NBANDSO">    -1</i>
   <i type="int" name="NBANDSV">    -1</i>
   <i type="int" name="NELM">     1</i>
   <i type="int" name="NELMHF">     1</i>
   <i type="int" name="DIM">     3</i>
   <i type="int" name="ANTIRES">     0</i>
   <i name="OMEGAMAX">    -30.00000000</i>
   <i name="OMEGAMIN">    -30.00000000</i>
   <i name="OMEGATL">   -200.00000000</i>
   <i type="int" name="OMEGAGRID">   140</i>
   <i name="CSHIFT">     -0.10000000</i>
   <i type="logical" name="SELFENERGY"> F  </i>
   <i type="logical" name="LSPECTRAL"> F  </i>
   <i type="logical" name="LSPECTRALGW"> F  </i>
   <i type="logical" name="LSINGLES"> F  </i>
   <i type="logical" name="LFERMIGW"> F  </i>
   <i type="logical" name="ODDONLYGW"> F  </i>
   <i type="logical" name="EVENONLYGW"> F  </i>
   <i type="int" name="NKREDLFX">     1</i>
   <i type="int" name="NKREDLFY">     1</i>
   <i type="int" name="NKREDLFZ">     1</i>
   <i type="int" name="MAXMEM">  2800</i>
   <i type="int" name="TELESCOPE">     0</i>
   <i type="int" name="TAUPAR">     1</i>
   <i type="int" name="OMEGAPAR">    -1</i>
   <i name="LAMBDA">      1.00000000</i>
  </separator>
  <separator name="External order field" >
   <i name="OFIELD_KAPPA">      0.00000000</i>
   <v name="OFIELD_K">      0.00000000      0.00000000      0.00000000</v>
   <i name="OFIELD_Q6_NEAR">      0.00000000</i>
   <i name="OFIELD_Q6_FAR">      0.00000000</i>
   <i name="OFIELD_A">      0.00000000</i>
  </separator>
 </parameters>
 <atominfo>
  <atoms>       3 </atoms>
  <types>       2 </types>
  <array name="atoms" >
   <dimension dim="1">ion</dimension>
   <field type="string">element</field>
   <field type="int">atomtype</field>
   <set>
    <rc><c>Ti</c><c>   1</c></rc>
    <rc><c>B </c><c>   2</c></rc>
    <rc><c>B </c><c>   2</c></rc>
   </set>
  </array>
  <array name="atomtypes" >
   <dimension dim="1">type</dimension>
   <field type="int">atomspertype</field>
   <field type="string">element</field>
   <field>mass</field>
   <field>valence</field>
   <field type="string">pseudopotential</field>
   <set>
    <rc><c>   1</c><c>Ti</c><c>     47.88000000</c><c>      4.00000000</c><c>  PAW_PBE Ti 08Apr2002                  </c></rc>
    <rc><c>   2</c><c>B </c><c>     10.81100000</c><c>      3.00000000</c><c>  PAW_PBE B 06Sep2000                   </c></rc>
   </set>
  </array>
 </atominfo>
 <structure name="initialpos" >
  <crystal>
   <varray name="basis" >
    <v>       2.85095912       0.00000000       0.00000000 </v>
    <v>      -1.42547956       2.62659896       0.00000000 </v>
    <v>       0.00000000       0.00000000       3.22568951 </v>
   </varray>
   <i name="volume">     24.15501545 </i>
   <varray name="rec_basis" >
    <v>       0.35075915       0.19036024       0.00000000 </v>
    <v>       0.00000000       0.38072047       0.00000000 </v>
    <v>       0.00000000       0.00000000       0.31001124 </v>
   </varray>
  </crystal>
  <varray name="positions" >
   <v>       0.00000000       0.00000000       0.00000000 </v>
   <v>       0.33333333       0.66666667       0.50000000 </v>
   <v>       0.66666667       0.33333333       0.50000000 </v>
  </varray>
 </structure>
 <calculation>
  <scstep>
   <time name="diag">    0.58    0.58</time>
   <time name="diis">    0.43    0.43</time>
   <time name="orth">    0.05    0.05</time>
   <time name="total">    1.08    1.08</time>
   <energy>
    <i name="alphaZ">     55.46244310 </i>
    <i name="ewald">   -339.95947669 </i>
    <i name="hartreedc">     -8.71100211 </i>
    <i name="XCdc">    -21.65583883 </i>
    <i name="pawpsdc">    212.51551635 </i>
    <i name="pawaedc">   -170.34075235 </i>
    <i name="eentropy">     -0.00122805 </i>
    <i name="bandstr">     85.71018109 </i>
    <i name="atom">    237.13190223 </i>
    <i name="e_fr_energy">     50.15174474 </i>
    <i name="e_wo_entrp">     50.15297279 </i>
    <i name="e_0_energy">     50.15235877 </i>
   </energy>
  </scstep>
  <scstep>
   <time name="diag">    0.58    0.58</time>
   <time name="diis">    0.43    0.43</time>
   <time name="orth">    0.06    0.06</time>
   <time name="total">    1.08    1.08</time>
   <energy>
    <i name="e_fr_energy">     -9.54712525 </i>
    <i name="e_wo_entrp">     -9.54618292 </i>
    <i name="e_0_energy">     -9.54665409 </i>
   </energy>
  </scstep>
  <scstep>
   <time name="diag">    0.57    0.58</time>
   <time name="diis">    0.43    0.43</time>
   <time name="orth">    0.05    0.05</time>
   <time name="total">    1.06    1.06</time>
   <energy>
    <i name="e_fr_energy">    -24.64105144 </i>
    <i name="e_wo_entrp">    -24.64040806 </i>
    <i name="e_0_energy">    -24.64072975 </i>
   </energy>
  </scstep>
  <scstep>
   <time name="diag">    0.57    0.57</time>
   <time name="diis">    0.43    0.43</time>
   <time name="orth">    0.05    0.05</time>
   <time name="total">    1.06    1.06</time>
   <energy>
    <i name="e_fr_energy">    -28.34687650 </i>
    <i name="e_wo_entrp">    -28.34658091 </i>
    <i name="e_0_energy">    -28.34672870 </i>
   </energy>
  </scstep>
  <scstep>
   <time name="diag">    0.57    0.57</time>
   <time name="diis">    0.43    0.43</time>
   <time name="orth">    0.05    0.05</time>
   <time name="total">    1.06    1.06</time>
   <energy>
    <i name="e_fr_energy">    -29.21394844 </i>
    <i name="e_wo_entrp">    -29.21332609 </i>
    <i name="e_0_energy">    -29.21363727 </i>
   </energy>
  </scstep>
  <scstep>
   <time name="diag">    0.58    0.58</time>
   <time name="diis">    0.43    0.43</time>
   <time name="orth">    0.05    0.05</time>
   <time name="total">    1.06    1.06</time>
   <energy>
[...]
       <r>    4.2041    1.0000 </r>
       <r>    9.1339    0.0000 </r>
       <r>    9.8460    0.0000 </r>
       <r>   10.5293    0.0000 </r>
       <r>   11.6660    0.0000 </r>
       <r>   13.8198    0.0000 </r>
       <r>   14.1678    0.0000 </r>
       <r>   18.4293    0.0000 </r>
      </set>
      <set comment="kpoint 619">
       <r>   -3.9482    1.0000 </r>
       <r>    0.9537    1.0000 </r>
       <r>    1.6536    1.0000 </r>
       <r>    2.1341    1.0000 </r>
       <r>    4.6448    1.0000 </r>
       <r>    8.8539    0.0000 </r>
       <r>    9.3770    0.0000 </r>
       <r>   10.1226    0.0000 </r>
       <r>   11.3013    0.0000 </r>
       <r>   14.4921    0.0000 </r>
       <r>   14.7148    0.0000 </r>
       <r>   17.8234    0.0000 </r>
      </set>
      <set comment="kpoint 620">
       <r>   -4.3355    1.0000 </r>
       <r>    0.9212    1.0000 </r>
       <r>    1.9673    1.0000 </r>
       <r>    2.6404    1.0000 </r>
       <r>    5.2016    1.0000 </r>
       <r>    8.4403    0.0000 </r>
       <r>    8.9841    0.0000 </r>
       <r>    9.6969    0.0000 </r>
       <r>   10.7051    0.0000 </r>
       <r>   15.0212    0.0000 </r>
       <r>   15.3277    0.0000 </r>
       <r>   17.1910    0.0000 </r>
      </set>
      <set comment="kpoint 621">
       <r>   -4.6415    1.0000 </r>
       <r>    0.2710    1.0000 </r>
       <r>    2.9761    1.0000 </r>
       <r>    3.2761    1.0000 </r>
       <r>    5.8265    1.0000 </r>
       <r>    7.9741    0.0000 </r>
       <r>    8.7058    0.0000 </r>
       <r>    9.2529    0.0000 </r>
       <r>    9.9581    0.0000 </r>
       <r>   15.2194    0.0000 </r>
       <r>   15.8875    0.0000 </r>
       <r>   17.0020    0.0000 </r>
      </set>
      <set comment="kpoint 622">
       <r>   -4.8367    1.0000 </r>
       <r>   -0.1447    1.0000 </r>
       <r>    2.8956    1.0000 </r>
       <r>    4.4497    1.0000 </r>
       <r>    5.8975    1.0000 </r>
       <r>    8.2830    0.0000 </r>
       <r>    8.5139    0.0000 </r>
       <r>    9.1203    0.0000 </r>
       <r>    9.6816    0.0000 </r>
       <r>   14.5793    0.0000 </r>
       <r>   16.2996    0.0000 </r>
       <r>   19.0373    0.0000 </r>
      </set>
      <set comment="kpoint 623">
       <r>   -4.6841    1.0000 </r>
       <r>    0.2147    1.0000 </r>
       <r>    2.2993    1.0000 </r>
       <r>    3.9183    1.0000 </r>
       <r>    5.5792    1.0000 </r>
       <r>    8.4510    0.0000 </r>
       <r>    8.6672    0.0000 </r>
       <r>    9.5542    0.0000 </r>
       <r>   10.1227    0.0000 </r>
       <r>   14.5660    0.0000 </r>
       <r>   16.1194    0.0000 </r>
       <r>   18.4653    0.0000 </r>
      </set>
      <set comment="kpoint 624">
       <r>   -4.4445    1.0000 </r>
       <r>    0.7368    1.0000 </r>
       <r>    1.6828    1.0000 </r>
       <r>    3.1541    1.0000 </r>
       <r>    5.1996    1.0000 </r>
       <r>    8.6301    0.0000 </r>
       <r>    8.9471    0.0000 </r>
       <r>    9.9985    0.0000 </r>
       <r>   10.6066    0.0000 </r>
       <r>   14.4854    0.0000 </r>
       <r>   16.1665    0.0000 </r>
       <r>   18.0627    0.0000 </r>
      </set>
      <set comment="kpoint 625">
       <r>   -4.1168    1.0000 </r>
       <r>    1.0414    1.0000 </r>
       <r>    1.3732    1.0000 </r>
       <r>    2.3777    1.0000 </r>
       <r>    4.8122    1.0000 </r>
       <r>    8.8536    0.0000 </r>
       <r>    9.3149    0.0000 </r>
       <r>   10.3712    0.0000 </r>
       <r>   11.0233    0.0000 </r>
       <r>   14.2535    0.0000 </r>
       <r>   16.1080    0.0000 </r>
       <r>   17.9939    0.0000 </r>
      </set>
      <set comment="kpoint 626">
       <r>   -3.7044    1.0000 </r>
       <r>    0.3362    1.0000 </r>
       <r>    1.7632    1.0000 </r>
       <r>    2.0457    1.0000 </r>
       <r>    4.4757    1.0000 </r>
       <r>    9.0807    0.0000 </r>
       <r>    9.7464    0.0000 </r>
       <r>   10.7014    0.0000 </r>
       <r>   11.2827    0.0000 </r>
       <r>   13.8470    0.0000 </r>
       <r>   15.7605    0.0000 </r>
       <r>   16.5786    0.0000 </r>
      </set>
      <set comment="kpoint 627">
       <r>   -3.2264    1.0000 </r>
       <r>   -0.4014    1.0000 </r>
       <r>    1.3757    1.0000 </r>
       <r>    2.6455    1.0000 </r>
       <r>    4.2227    1.0000 </r>
       <r>    9.2620    0.0000 </r>
       <r>   10.1885    0.0000 </r>
       <r>   10.9854    0.0000 </r>
       <r>   11.4024    0.0000 </r>
       <r>   13.3269    0.0000 </r>
       <r>   15.3666    0.0000 </r>
       <r>   15.7481    0.0000 </r>
      </set>
      <set comment="kpoint 628">
       <r>   -2.7711    1.0000 </r>
       <r>   -1.0125    1.0000 </r>
       <r>    1.1881    1.0000 </r>
       <r>    3.0731    1.0000 </r>
       <r>    4.0225    1.0000 </r>
       <r>    9.3635    0.0000 </r>
       <r>   10.5345    0.0000 </r>
       <r>   11.1095    0.0000 </r>
       <r>   11.5102    0.0000 </r>
       <r>   12.8952    0.0000 </r>
       <r>   15.0827    0.0000 </r>
       <r>   15.3761    0.0000 </r>
      </set>
      <set comment="kpoint 629">
       <r>   -2.6805    1.0000 </r>
       <r>   -1.1040    1.0000 </r>
       <r>    1.1698    1.0000 </r>
       <r>    3.2714    1.0000 </r>
       <r>    3.8208    1.0000 </r>
       <r>    9.3668    0.0000 </r>
       <r>   10.6073    0.0000 </r>
       <r>   10.9872    0.0000 </r>
       <r>   11.6811    0.0000 </r>
       <r>   12.8438    0.0000 </r>
       <r>   14.9751    0.0000 </r>
       <r>   15.4749    0.0000 </r>
      </set>
      <set comment="kpoint 630">
       <r>   -3.0698    1.0000 </r>
       <r>   -0.5453    1.0000 </r>
       <r>    1.3074    1.0000 </r>
       <r>    2.9773    1.0000 </r>
       <r>    3.8926    1.0000 </r>
       <r>    9.2679    0.0000 </r>
       <r>   10.3298    0.0000 </r>
       <r>   10.7332    0.0000 </r>
       <r>   11.7705    0.0000 </r>
       <r>   13.2709    0.0000 </r>
       <r>   15.0479    0.0000 </r>
       <r>   16.0041    0.0000 </r>
      </set>
      <set comment="kpoint 631">
       <r>   -3.5500    1.0000 </r>
       <r>    0.2610    1.0000 </r>
       <r>    1.5977    1.0000 </r>
       <r>    2.3306    1.0000 </r>
       <r>    4.2245    1.0000 </r>
       <r>    9.0750    0.0000 </r>
       <r>    9.8639    0.0000 </r>
       <r>   10.4157    0.0000 </r>
       <r>   11.6663    0.0000 </r>
       <r>   13.9373    0.0000 </r>
       <r>   15.2196    0.0000 </r>
       <r>   16.9544    0.0000 </r>
      </set>
      <set comment="kpoint 632">
       <r>   -3.9819    1.0000 </r>
       <r>    1.1318    1.0000 </r>
       <r>    1.6046    1.0000 </r>
       <r>    2.0440    1.0000 </r>
       <r>    4.6766    1.0000 </r>
       <r>    8.7968    0.0000 </r>
       <r>    9.3759    0.0000 </r>
       <r>   10.0663    0.0000 </r>
       <r>   11.2974    0.0000 </r>
       <r>   14.5779    0.0000 </r>
       <r>   15.3118    0.0000 </r>
       <r>   16.9766    0.0000 </r>
      </set>
      <set comment="kpoint 633">
       <r>   -4.5821    1.0000 </r>
       <r>    0.4546    1.0000 </r>
       <r>    1.7880    1.0000 </r>
       <r>    3.8356    1.0000 </r>
       <r>    5.3371    1.0000 </r>
       <r>    8.6900    0.0000 </r>
       <r>    8.6935    0.0000 </r>
       <r>    9.7633    0.0000 </r>
       <r>   10.4258    0.0000 </r>
       <r>   14.3778    0.0000 </r>
       <r>   15.6641    0.0000 </r>
       <r>   19.9192    0.0000 </r>
      </set>
      <set comment="kpoint 634">
       <r>   -4.3944    1.0000 </r>
       <r>    0.8625    1.0000 </r>
       <r>    1.2515    1.0000 </r>
       <r>    3.3948    1.0000 </r>
       <r>    5.0338    1.0000 </r>
       <r>    8.7558    0.0000 </r>
       <r>    8.9951    0.0000 </r>
       <r>   10.1015    0.0000 </r>
       <r>   10.7743    0.0000 </r>
       <r>   14.1866    0.0000 </r>
       <r>   15.5537    0.0000 </r>
       <r>   19.2023    0.0000 </r>
      </set>
      <set comment="kpoint 635">
       <r>   -4.1188    1.0000 </r>
       <r>    0.7227    1.0000 </r>
       <r>    1.4064    1.0000 </r>
       <r>    2.7354    1.0000 </r>
       <r>    4.7096    1.0000 </r>
       <r>    8.8778    0.0000 </r>
       <r>    9.3576    0.0000 </r>
       <r>   10.4316    0.0000 </r>
       <r>   11.1051    0.0000 </r>
       <r>   13.9397    0.0000 </r>
       <r>   15.9131    0.0000 </r>
       <r>   18.4550    0.0000 </r>
      </set>
      <set comment="kpoint 636">
       <r>   -3.7541    1.0000 </r>
       <r>    0.1925    1.0000 </r>
       <r>    2.0267    1.0000 </r>
       <r>    2.0361    1.0000 </r>
       <r>    4.4140    1.0000 </r>
       <r>    9.0437    0.0000 </r>
       <r>    9.7721    0.0000 </r>
       <r>   10.7091    0.0000 </r>
       <r>   11.3215    0.0000 </r>
       <r>   13.6038    0.0000 </r>
       <r>   16.5798    0.0000 </r>
       <r>   16.9199    0.0000 </r>
      </set>
      <set comment="kpoint 637">
       <r>   -3.3040    1.0000 </r>
       <r>   -0.3730    1.0000 </r>
       <r>    1.4544    1.0000 </r>
       <r>    2.6245    1.0000 </r>
       <r>    4.1957    1.0000 </r>
       <r>    9.2107    0.0000 </r>
       <r>   10.2273    0.0000 </r>
       <r>   10.9435    0.0000 </r>
       <r>   11.4096    0.0000 </r>
       <r>   13.1691    0.0000 </r>
       <r>   15.7412    0.0000 </r>
       <r>   16.8037    0.0000 </r>
      </set>
      <set comment="kpoint 638">
       <r>   -2.7909    1.0000 </r>
       <r>   -0.9719    1.0000 </r>
       <r>    1.0835    1.0000 </r>
       <r>    3.0776    1.0000 </r>
       <r>    4.0693    1.0000 </r>
       <r>    9.3347    0.0000 </r>
       <r>   10.6891    0.0000 </r>
       <r>   11.0999    0.0000 </r>
       <r>   11.4471    0.0000 </r>
       <r>   12.6772    0.0000 </r>
       <r>   14.9989    0.0000 </r>
       <r>   16.6183    0.0000 </r>
      </set>
      <set comment="kpoint 639">
       <r>   -2.3664    1.0000 </r>
       <r>   -1.4217    1.0000 </r>
       <r>    0.9314    1.0000 </r>
       <r>    3.3523    1.0000 </r>
       <r>    3.9322    1.0000 </r>
       <r>    9.3897    0.0000 </r>
       <r>   11.0049    0.0000 </r>
       <r>   11.0768    0.0000 </r>
       <r>   11.5577    0.0000 </r>
       <r>   12.3597    0.0000 </r>
       <r>   14.7771    0.0000 </r>
       <r>   16.4698    0.0000 </r>
      </set>
      <set comment="kpoint 640">
       <r>   -2.5770    1.0000 </r>
       <r>   -1.1380    1.0000 </r>
       <r>    0.9742    1.0000 </r>
       <r>    3.4876    1.0000 </r>
       <r>    3.6822    1.0000 </r>
       <r>    9.3634    0.0000 </r>
       <r>   10.8414    0.0000 </r>
       <r>   10.9139    0.0000 </r>
       <r>   11.6988    0.0000 </r>
       <r>   12.6311    0.0000 </r>
       <r>   15.0591    0.0000 </r>
       <r>   16.4111    0.0000 </r>
      </set>
      <set comment="kpoint 641">
       <r>   -3.0775    1.0000 </r>
       <r>   -0.4615    1.0000 </r>
       <r>    1.1982    1.0000 </r>
       <r>    3.0032    1.0000 </r>
       <r>    3.8769    1.0000 </r>
       <r>    9.2534    0.0000 </r>
       <r>   10.3804    0.0000 </r>
       <r>   10.6838    0.0000 </r>
       <r>   11.7694    0.0000 </r>
       <r>   13.2724    0.0000 </r>
       <r>   15.7905    0.0000 </r>
       <r>   17.0231    0.0000 </r>
      </set>
      <set comment="kpoint 642">
       <r>   -4.2628    1.0000 </r>
       <r>    0.7753    1.0000 </r>
       <r>    1.1471    1.0000 </r>
       <r>    3.3489    1.0000 </r>
       <r>    4.7947    1.0000 </r>
       <r>    8.8796    0.0000 </r>
       <r>    9.1371    0.0000 </r>
       <r>   10.3141    0.0000 </r>
       <r>   10.9995    0.0000 </r>
       <r>   13.8973    0.0000 </r>
       <r>   15.0304    0.0000 </r>
       <r>   20.6024    0.0000 </r>
      </set>
      <set comment="kpoint 643">
       <r>   -4.0471    1.0000 </r>
       <r>    0.3105    1.0000 </r>
       <r>    1.5739    1.0000 </r>
       <r>    2.9921    1.0000 </r>
       <r>    4.5221    1.0000 </r>
       <r>    8.9615    0.0000 </r>
       <r>    9.4183    0.0000 </r>
       <r>   10.5769    0.0000 </r>
       <r>   11.2341    0.0000 </r>
       <r>   13.6105    0.0000 </r>
       <r>   15.0081    0.0000 </r>
       <r>   19.4641    0.0000 </r>
      </set>
      <set comment="kpoint 644">
       <r>   -3.7455    1.0000 </r>
       <r>   -0.1275    1.0000 </r>
       <r>    2.1047    1.0000 </r>
       <r>    2.4270    1.0000 </r>
       <r>    4.2571    1.0000 </r>
       <r>    9.0651    0.0000 </r>
       <r>    9.7747    0.0000 </r>
       <r>   10.8065    0.0000 </r>
       <r>   11.3889    0.0000 </r>
       <r>   13.2990    0.0000 </r>
       <r>   15.6077    0.0000 </r>
       <r>   17.9029    0.0000 </r>
      </set>
      <set comment="kpoint 645">
       <r>   -3.3579    1.0000 </r>
       <r>   -0.5513    1.0000 </r>
       <r>    1.8049    1.0000 </r>
       <r>    2.6636    1.0000 </r>
       <r>    4.0488    1.0000 </r>
       <r>    9.1887    0.0000 </r>
       <r>   10.1890    0.0000 </r>
       <r>   10.9911    0.0000 </r>
       <r>   11.4281    0.0000 </r>
       <r>   12.9391    0.0000 </r>
       <r>   16.3196    0.0000 </r>
       <r>   16.7408    0.0000 </r>
      </set>
      <set comment="kpoint 646">
       <r>   -2.8883    1.0000 </r>
       <r>   -0.9957    1.0000 </r>
       <r>    1.2715    1.0000 </r>
       <r>    3.1155    1.0000 </r>
       <r>    3.9586    1.0000 </r>
       <r>    9.2994    0.0000 </r>
       <r>   10.6694    0.0000 </r>
       <r>   11.1309    0.0000 </r>
       <r>   11.4112    0.0000 </r>
       <r>   12.5086    0.0000 </r>
       <r>   15.2443    0.0000 </r>
       <r>   17.9933    0.0000 </r>
      </set>
      <set comment="kpoint 647">
       <r>   -2.3492    1.0000 </r>
       <r>   -1.4909    1.0000 </r>
       <r>    0.9356    1.0000 </r>
       <r>    3.3443    1.0000 </r>
       <r>    3.9815    1.0000 </r>
       <r>    9.3717    0.0000 </r>
       <r>   11.1605    0.0000 </r>
       <r>   11.2222    0.0000 </r>
       <r>   11.4491    0.0000 </r>
       <r>   12.0057    0.0000 </r>
       <r>   14.6418    0.0000 </r>
       <r>   18.0887    0.0000 </r>
      </set>
      <set comment="kpoint 648">
       <r>   -2.0518    1.0000 </r>
       <r>   -1.7358    1.0000 </r>
       <r>    0.8394    1.0000 </r>
       <r>    3.4644    1.0000 </r>
       <r>    3.8935    1.0000 </r>
       <r>    9.3967    0.0000 </r>
       <r>   11.0644    0.0000 </r>
       <r>   11.3630    0.0000 </r>
       <r>   11.5708    0.0000 </r>
       <r>   11.9599    0.0000 </r>
       <r>   14.5850    0.0000 </r>
       <r>   18.0425    0.0000 </r>
      </set>
      <set comment="kpoint 649">
       <r>   -3.9008    1.0000 </r>
       <r>   -0.0969    1.0000 </r>
       <r>    1.8711    1.0000 </r>
       <r>    2.9968    1.0000 </r>
       <r>    4.2876    1.0000 </r>
       <r>    9.0419    0.0000 </r>
       <r>    9.5575    0.0000 </r>
       <r>   10.7836    0.0000 </r>
       <r>   11.3916    0.0000 </r>
       <r>   13.3171    0.0000 </r>
       <r>   14.4578    0.0000 </r>
       <r>   19.6922    0.0000 </r>
      </set>
      <set comment="kpoint 650">
       <r>   -3.6799    1.0000 </r>
       <r>   -0.4635    1.0000 </r>
       <r>    2.2809    1.0000 </r>
       <r>    2.7196    1.0000 </r>
       <r>    4.0411    1.0000 </r>
       <r>    9.1108    0.0000 </r>
       <r>    9.7904    0.0000 </r>
       <r>   10.9738    0.0000 </r>
       <r>   11.4958    0.0000 </r>
       <r>   13.0472    0.0000 </r>
       <r>   14.5603    0.0000 </r>
       <r>   18.6717    0.0000 </r>
      </set>
      <set comment="kpoint 651">
       <r>   -3.3884    1.0000 </r>
       <r>   -0.7794    1.0000 </r>
       <r>    2.2388    1.0000 </r>
       <r>    2.7613    1.0000 </r>
       <r>    3.8189    1.0000 </r>
       <r>    9.1892    0.0000 </r>
       <r>   10.0946    0.0000 </r>
       <r>   11.1119    0.0000 </r>
       <r>   11.4717    0.0000 </r>
       <r>   12.7777    0.0000 </r>
       <r>   15.3766    0.0000 </r>
       <r>   17.2736    0.0000 </r>
      </set>
      <set comment="kpoint 652">
       <r>   -3.0379    1.0000 </r>
       <r>   -1.0514    1.0000 </r>
       <r>    1.6883    1.0000 </r>
       <r>    3.2077    1.0000 </r>
       <r>    3.6848    1.0000 </r>
       <r>    9.2685    0.0000 </r>
       <r>   10.4677    0.0000 </r>
       <r>   11.2088    0.0000 </r>
       <r>   11.3911    0.0000 </r>
       <r>   12.4904    0.0000 </r>
       <r>   16.0096    0.0000 </r>
       <r>   16.7109    0.0000 </r>
      </set>
      <set comment="kpoint 653">
       <r>   -2.6596    1.0000 </r>
       <r>   -1.2970    1.0000 </r>
       <r>    1.2111    1.0000 </r>
       <r>    3.3578    1.0000 </r>
       <r>    3.8181    1.0000 </r>
       <r>    9.3303    0.0000 </r>
       <r>   10.9030    0.0000 </r>
       <r>   11.2295    0.0000 </r>
       <r>   11.3701    0.0000 </r>
       <r>   12.1809    0.0000 </r>
       <r>   15.0802    0.0000 </r>
       <r>   18.3601    0.0000 </r>
      </set>
      <set comment="kpoint 654">
       <r>   -3.5618    1.0000 </r>
       <r>   -0.7477    1.0000 </r>
       <r>    2.5512    1.0000 </r>
       <r>    2.7839    1.0000 </r>
       <r>    3.8035    1.0000 </r>
       <r>    9.1518    0.0000 </r>
       <r>    9.8660    0.0000 </r>
       <r>   11.1379    0.0000 </r>
       <r>   11.6149    0.0000 </r>
       <r>   12.8551    0.0000 </r>
       <r>   14.0249    0.0000 </r>
       <r>   19.1787    0.0000 </r>
      </set>
      <set comment="kpoint 655">
       <r>   -3.4015    1.0000 </r>
       <r>   -0.9484    1.0000 </r>
       <r>    2.5822    1.0000 </r>
       <r>    2.8993    1.0000 </r>
       <r>    3.5753    1.0000 </r>
       <r>    9.1913    0.0000 </r>
       <r>   10.0112    0.0000 </r>
       <r>   11.2381    0.0000 </r>
       <r>   11.5831    0.0000 </r>
       <r>   12.7008    0.0000 </r>
       <r>   14.2977    0.0000 </r>
       <r>   18.3620    0.0000 </r>
      </set>
      <set comment="kpoint 656">
       <r>   -3.2180    1.0000 </r>
       <r>   -1.0493    1.0000 </r>
       <r>    2.1756    1.0000 </r>
       <r>    3.2642    1.0000 </r>
       <r>    3.4046    1.0000 </r>
       <r>    9.2331    0.0000 </r>
       <r>   10.2188    0.0000 </r>
       <r>   11.2744    0.0000 </r>
       <r>   11.4374    0.0000 </r>
       <r>   12.5738    0.0000 </r>
       <r>   15.2916    0.0000 </r>
       <r>   17.1211    0.0000 </r>
      </set>
      <set comment="kpoint 657">
       <r>   -3.4048    1.0000 </r>
       <r>   -1.0096    1.0000 </r>
       <r>    2.7127    1.0000 </r>
       <r>    2.9903    1.0000 </r>
       <r>    3.4443    1.0000 </r>
       <r>    9.1904    0.0000 </r>
       <r>    9.9807    0.0000 </r>
       <r>   11.2800    0.0000 </r>
       <r>   11.6869    0.0000 </r>
       <r>   12.6796    0.0000 </r>
       <r>   13.8538    0.0000 </r>
       <r>   18.9962    0.0000 </r>
      </set>
     </set>
    </set>
   </array>
  </eigenvalues>
  <separator name="orbital magnetization" >
   <v name="MAGDIPOLOUT">      0.00000000      0.00000000      0.00000000</v>
  </separator>
 </calculation>
 <structure name="finalpos" >
  <crystal>
   <varray name="basis" >
    <v>       2.85095912       0.00000000       0.00000000 </v>
    <v>      -1.42547956       2.62659896       0.00000000 </v>
    <v>       0.00000000       0.00000000       3.22568951 </v>
   </varray>
   <i name="volume">     24.15501545 </i>
   <varray name="rec_basis" >
    <v>       0.35075915       0.19036024       0.00000000 </v>
    <v>       0.00000000       0.38072047       0.00000000 </v>
    <v>       0.00000000       0.00000000       0.31001124 </v>
   </varray>
  </crystal>
  <varray name="positions" >
   <v>       0.00000000       0.00000000       0.00000000 </v>
   <v>       0.33505410       0.67010820       0.50000000 </v>
   <v>       0.66494590       0.32989180       0.50000000 </v>
  </varray>
 </structure>
</modeling>
