unknown system                          
           1
     2.850959    0.000000    0.000000
    -1.425480    2.626599    0.000000
     0.000000    0.000000    3.225690
   Ti   B 
   1   2
Direct configuration=     1
   0.00000000  0.00000000  0.00000000
   0.33333333  0.66666667  0.50000000
   0.66666667  0.33333333  0.50000000
Direct configuration=     2
   0.00000000  0.00000000  0.00000000
   0.33630571  0.67261142  0.50000000
   0.66369429  0.32738858  0.50000000
Direct configuration=     3
   0.00000000  0.00000000  0.00000000
   0.33503395  0.67006789  0.50000000
   0.66496605  0.32993211  0.50000000
Direct configuration=     4
   0.00000000  0.00000000  0.00000000
   0.33505410  0.67010820  0.50000000
   0.66494590  0.32989180  0.50000000
