    3    3   50    1
  0.9079545E+01  0.3214911E-09  0.3079438E-09  0.3225690E-09  0.5000000E-15
  1.000000000000000E-004
  CAR 
 unknown system                          
     10    657     12
 
  0.0000000E+00  0.0000000E+00  0.0000000E+00  0.2441406E-03
    1       -7.173152   1.000000
    2        3.037540   1.000000
    3        3.484897   1.000000
    4        4.040060   1.000000
    5        4.105634   1.000000
    6        7.556395   0.000000
    7        7.627465   0.000000
    8        9.368944   0.000000
    9        9.499568   0.000000
   10       10.880699   0.000000
   11       10.994522   0.000000
   12       12.606589   0.000000
 
  0.6250000E-01  0.0000000E+00  0.0000000E+00  0.9765625E-03
    1       -7.105579   1.000000
    2        2.874509   1.000000
    3        3.426546   1.000000
    4        3.975547   1.000000
    5        4.135529   1.000000
    6        7.587154   0.000000
    7        7.705110   0.000000
    8        9.046840   0.000000
    9        9.185882   0.000000
   10       11.344200   0.000000
   11       11.400412   0.000000
   12       12.789534   0.000000
 
  0.1250000E+00  0.0000000E+00  0.0000000E+00  0.9765625E-03
    1       -6.904298   1.000000
    2        2.340065   1.000000
    3        3.357194   1.000000
    4        3.813430   1.000000
    5        4.209337   1.000000
    6        7.547756   0.000000
    7        8.031342   0.000000
    8        8.479490   0.000000
    9        8.755191   0.000000
   10       12.055593   0.000000
   11       12.284832   0.000000
   12       13.389205   0.000000
 
  0.1875000E+00 -0.4163336E-16  0.0000000E+00  0.9765625E-03
    1       -6.573572   1.000000
    2        1.535118   1.000000
    3        3.299457   1.000000
    4        3.614343   1.000000
    5        4.278256   1.000000
    6        7.482047   0.000000
    7        8.045962   0.000000
    8        8.428461   0.000000
    9        8.477348   0.000000
   10       12.565584   0.000000
   11       13.608053   0.000000
   12       14.274163   0.000000
 
  0.2500000E+00  0.0000000E+00  0.0000000E+00  0.9765625E-03
    1       -6.120121   1.000000
    2        0.596091   1.000000
    3        3.228822   1.000000
    4        3.425595   1.000000
    5        4.278176   1.000000
    6        7.406301   0.000000
    7        7.856100   0.000000
    8        8.257830   0.000000
    9        8.929089   0.000000
   10       12.870574   0.000000
   11       13.110248   0.000000
   12       15.244112   0.000000
 
  0.3125000E+00 -0.5551115E-16  0.0000000E+00  0.9765625E-03
    1       -5.552672   1.000000
    2       -0.393672   1.000000
    3        3.146836   1.000000
    4        3.272238   1.000000
    5        4.185462   1.000000
    6        7.333402   0.000000
    7        7.894622   0.000000
    8        8.259339   0.000000
    9        9.271106   0.000000
   10       12.737520   0.000000
   11       13.047660   0.000000
   12       14.237847   0.000000
 
  0.3750000E+00 -0.8326673E-16  0.0000000E+00  0.9765625E-03
    1       -4.881707   1.000000
    2       -1.384754   1.000000
    3        3.069607   1.000000
    4        3.163537   1.000000
    5        4.046815   1.000000
    6        7.274219   0.000000
    7        8.004642   0.000000
    8        8.448725   0.000000
    9        9.430378   0.000000
   10       12.626187   0.000000
   11       13.122632   0.000000
   12       13.964858   0.000000
 
  0.4375000E+00 -0.5551115E-16  0.0000000E+00  0.9765625E-03
    1       -4.120527   1.000000
    2       -2.344059   1.000000
    3        3.015159   1.000000
    4        3.100046   1.000000
    5        3.931945   1.000000
    6        7.236226   0.000000
    7        8.078403   0.000000
    8        8.711063   0.000000
    9        9.452132   0.000000
   10       12.678207   0.000000
   11       13.103924   0.000000
   12       13.746290   0.000000
 
  0.5000000E+00  0.0000000E+00  0.0000000E+00  0.4882812E-03
    1       -3.388954   1.000000
    2       -3.142549   1.000000
    3        2.995685   1.000000
    4        3.079329   1.000000
    5        3.888423   1.000000
    6        7.223220   0.000000
    7        8.104507   0.000000
    8        8.832256   0.000000
    9        9.443295   0.000000
   10       12.722059   0.000000
   11       13.067511   0.000000
   12       13.674316   0.000000
 
  0.0000000E+00  0.6250000E-01  0.0000000E+00  0.4882812E-03
    1       -7.099481   1.000000
    2        3.019551   1.000000
    3        3.307357   1.000000
    4        3.970030   1.000000
    5        4.099791   1.000000
    6        7.533336   0.000000
    7        7.779480   0.000000
    8        9.033427   0.000000
    9        9.199139   0.000000
   10       11.181080   0.000000
   11       11.423115   0.000000
   12       12.879109   0.000000
 
  0.6250000E-01  0.6250000E-01  0.0000000E+00  0.9765625E-03
    1       -6.959028   1.000000
    2        2.668945   1.000000
    3        3.252730   1.000000
    4        3.853809   1.000000
    5        4.137480   1.000000
    6        7.521145   0.000000
    7        8.007472   0.000000
    8        8.623179   0.000000
    9        8.845706   0.000000
   10       11.620624   0.000000
   11       12.041185   0.000000
   12       13.366830   0.000000
 
  0.1250000E+00  0.6250000E-01  0.0000000E+00  0.9765625E-03
    1       -6.687176   1.000000
    2        1.934015   1.000000
    3        3.235960   1.000000
    4        3.675381   1.000000
    5        4.229162   1.000000
    6        7.478812   0.000000
    7        8.132734   0.000000
    8        8.398419   0.000000
    9        8.530181   0.000000
   10       12.405281   0.000000
   11       12.617195   0.000000
   12       13.866266   0.000000
 
  0.1875000E+00  0.6250000E-01  0.0000000E+00  0.9765625E-03
    1       -6.289417   1.000000
    2        1.038943   1.000000
    3        3.133260   1.000000
    4        3.489526   1.000000
    5        4.336407   1.000000
    6        7.395037   0.000000
    7        7.766333   0.000000
    8        8.383952   0.000000
    9        8.874264   0.000000
   10       12.913208   0.000000
   11       13.198660   0.000000
   12       13.478249   0.000000
 
  0.2500000E+00  0.6250000E-01  0.0000000E+00  0.9765625E-03
    1       -5.773460   1.000000
    2        0.071612   1.000000
    3        2.962126   1.000000
    4        3.331687   1.000000
    5        4.404221   1.000000
    6        7.282613   0.000000
    7        7.605684   0.000000
    8        8.412595   0.000000
    9        9.321083   0.000000
   10       12.940861   0.000000
   11       13.641211   0.000000
   12       14.422655   0.000000
 
  0.3125000E+00  0.6250000E-01  0.0000000E+00  0.9765625E-03
    1       -5.148884   1.000000
    2       -0.914288   1.000000
    3        2.766514   1.000000
    4        3.217931   1.000000
    5        4.411030   1.000000
    6        7.156956   0.000000
    7        7.645441   0.000000
    8        8.560477   0.000000
    9        9.624923   0.000000
   10       12.512273   0.000000
   11       13.269095   0.000000
   12       14.173045   0.000000
 
  0.3750000E+00  0.6250000E-01  0.0000000E+00  0.9765625E-03
    1       -4.427436   1.000000
    2       -1.882904   1.000000
    3        2.590629   1.000000
    4        3.150846   1.000000
    5        4.388636   1.000000
    6        7.037206   0.000000
    7        7.801151   0.000000
    8        8.733164   0.000000
    9        9.750578   0.000000
   10       12.547071   0.000000
   11       13.286978   0.000000
   12       13.950666   0.000000
 
  0.4375000E+00  0.6250000E-01  0.0000000E+00  0.9765625E-03
    1       -3.631698   1.000000
    2       -2.799358   1.000000
    3        2.467039   1.000000
    4        3.125859   1.000000
    5        4.384320   1.000000
    6        6.946546   0.000000
    7        7.968007   0.000000
    8        8.809737   0.000000
    9        9.780223   0.000000
   10       12.666359   0.000000
   11       13.217051   0.000000
   12       13.863034   0.000000
 
  0.5000000E+00  0.6250000E-01  0.0000000E+00  0.9765625E-03
    1       -3.713157   1.000000
    2       -2.707470   1.000000
    3        2.414037   1.000000
    4        3.136884   1.000000
    5        4.425263   1.000000
    6        6.906544   0.000000
    7        8.076763   0.000000
    8        8.695988   0.000000
    9        9.791029   0.000000
   10       12.713701   0.000000
   11       13.191543   0.000000
   12       13.899885   0.000000
 
 -0.4375000E+00  0.6250000E-01  0.0000000E+00  0.9765625E-03
    1       -4.501504   1.000000
    2       -1.778931   1.000000
    3        2.437030   1.000000
    4        3.180961   1.000000
    5        4.508510   1.000000
    6        6.928368   0.000000
    7        8.107458   0.000000
    8        8.420741   0.000000
    9        9.771903   0.000000
   10       12.683971   0.000000
   11       13.243183   0.000000
   12       14.020027   0.000000
 
 -0.3750000E+00  0.6250000E-01  0.0000000E+00  0.9765625E-03
    1       -5.212290   1.000000
    2       -0.806645   1.000000
    3        2.530935   1.000000
    4        3.259734   1.000000
    5        4.598263   1.000000
    6        7.008163   0.000000
    7        8.035088   0.000000
    8        8.178468   0.000000
    9        9.637275   0.000000
   10       12.718914   0.000000
   11       13.272585   0.000000
   12       14.199199   0.000000
 
 -0.3125000E+00  0.6250000E-01  0.0000000E+00  0.9765625E-03
    1       -5.825984   1.000000
    2        0.170685   1.000000
    3        2.682511   1.000000
    4        3.376221   1.000000
    5        4.631922   1.000000
    6        7.129669   0.000000
    7        7.898764   0.000000
    8        8.150228   0.000000
    9        9.319138   0.000000
   10       12.961824   0.000000
   11       13.208347   0.000000
   12       14.376304   0.000000
 
 -0.2500000E+00  0.6250000E-01  0.0000000E+00  0.9765625E-03
    1       -6.330844   1.000000
    2        1.103971   1.000000
    3        2.874520   1.000000
    4        3.529015   1.000000
    5        4.562936   1.000000
    6        7.270964   0.000000
    7        7.973154   0.000000
    8        8.229469   0.000000
    9        8.858989   0.000000
   10       13.016233   0.000000
   11       13.422023   0.000000
   12       14.371141   0.000000
 
 -0.1875000E+00  0.6250000E-01  0.0000000E+00  0.9765625E-03
    1       -6.717174   1.000000
    2        1.917749   1.000000
    3        3.091598   1.000000
    4        3.704754   1.000000
    5        4.414155   1.000000
    6        7.410423   0.000000
    7        8.281328   0.000000
    8        8.362480   0.000000
    9        8.434158   0.000000
   10       12.627261   0.000000
   11       13.221900   0.000000
   12       13.740692   0.000000
 
 -0.1250000E+00  0.6250000E-01  0.0000000E+00  0.4882812E-03
    1       -6.977224   1.000000
    2        2.518312   1.000000
    3        3.310058   1.000000
    4        3.871008   1.000000
    5        4.252231   1.000000
    6        7.529767   0.000000
    7        7.936283   0.000000
    8        8.730450   0.000000
    9        8.763132   0.000000
   10       11.945878   0.000000
   11       12.174963   0.000000
   12       13.014218   0.000000
 
  0.0000000E+00  0.1250000E+00  0.0000000E+00  0.4882812E-03
    1       -6.880211   1.000000
    2        2.762774   1.000000
    3        2.961593   1.000000
    4        3.800151   1.000000
    5        4.140264   1.000000
    6        7.468431   0.000000
    7        8.182374   0.000000
    8        8.559200   0.000000
    9        8.622195   0.000000
   10       11.517340   0.000000
   11       12.525037   0.000000
   12       13.598070   0.000000
 
  0.6250000E-01  0.1250000E+00  0.0000000E+00  0.9765625E-03
    1       -6.669392   1.000000
    2        2.177833   1.000000
    3        2.955667   1.000000
    4        3.673714   1.000000
    5        4.225649   1.000000
    6        7.413340   0.000000
    7        8.185905   0.000000
    8        8.434727   0.000000
    9        8.506387   0.000000
   10       11.906101   0.000000
   11       13.069025   0.000000
   12       14.092031   0.000000
 
  0.1250000E+00  0.1250000E+00  0.0000000E+00  0.9765625E-03
    1       -6.330746   1.000000
    2        1.402459   1.000000
    3        2.773149   1.000000
    4        3.523139   1.000000
    5        4.435301   1.000000
    6        7.295106   0.000000
    7        7.756901   0.000000
    8        8.381519   0.000000
    9        8.975283   0.000000
   10       12.627893   0.000000
   11       13.180385   0.000000
   12       13.404568   0.000000
 
  0.1875000E+00  0.1250000E+00  0.0000000E+00  0.9765625E-03
    1       -5.870720   1.000000
    2        0.523845   1.000000
    3        2.468666   1.000000
    4        3.391001   1.000000
    5        4.704851   1.000000
    6        7.105353   0.000000
    7        7.424217   0.000000
    8        8.468091   0.000000
    9        9.519570   0.000000
   10       12.683091   0.000000
   11       13.558092   0.000000
   12       13.609538   0.000000
 
  0.2500000E+00  0.1250000E+00  0.0000000E+00  0.9765625E-03
    1       -5.297885   1.000000
    2       -0.408716   1.000000
    3        2.142783   1.000000
    4        3.300751   1.000000
    5        4.935664   1.000000
    6        6.867808   0.000000
    7        7.279812   0.000000
    8        8.627013   0.000000
    9       10.024939   0.000000
   10       12.367472   0.000000
   11       13.706696   0.000000
   12       14.663341   0.000000
 
  0.3125000E+00  0.1250000E+00  0.0000000E+00  0.9765625E-03
    1       -4.623065   1.000000
    2       -1.353779   1.000000
    3        1.859171   1.000000
    4        3.257624   1.000000
    5        5.064130   1.000000
    6        6.622278   0.000000
    7        7.360644   0.000000
    8        8.757431   0.000000
    9       10.357952   0.000000
   10       12.324218   0.000000
   11       13.695540   0.000000
   12       14.821090   0.000000
 
  0.3750000E+00  0.1250000E+00  0.0000000E+00  0.9765625E-03
    1       -3.862772   1.000000
    2       -2.274589   1.000000
    3        1.652551   1.000000
    4        3.252789   1.000000
    5        5.112055   1.000000
    6        6.418198   0.000000
    7        7.594366   0.000000
    8        8.766850   0.000000
    9       10.486774   0.000000
   10       12.491241   0.000000
   11       13.605630   0.000000
   12       14.389566   0.000000
 
  0.4375000E+00  0.1250000E+00  0.0000000E+00  0.9765625E-03
    1       -3.277544   1.000000
    2       -2.900018   1.000000
    3        1.540712   1.000000
    4        3.269750   1.000000
    5        5.141878   1.000000
    6        6.303278   0.000000
    7        7.838338   0.000000
    8        8.622571   0.000000
    9       10.508041   0.000000
   10       12.651890   0.000000
   11       13.537868   0.000000
   12       14.421195   0.000000
 
  0.5000000E+00  0.1250000E+00  0.0000000E+00  0.9765625E-03
    1       -4.018758   1.000000
    2       -2.077254   1.000000
    3        1.532188   1.000000
    4        3.294989   1.000000
    5        5.182361   1.000000
    6        6.307633   0.000000
    7        7.932577   0.000000
    8        8.422866   0.000000
    9       10.465512   0.000000
   10       12.686341   0.000000
   11       13.553769   0.000000
   12       14.464725   0.000000
 
 -0.4375000E+00  0.1250000E+00  0.0000000E+00  0.9765625E-03
    1       -4.759404   1.000000
    2       -1.142751   1.000000
    3        1.631223   1.000000
    4        3.327663   1.000000
    5        5.207925   1.000000
    6        6.431592   0.000000
    7        7.787974   0.000000
    8        8.336641   0.000000
    9       10.302215   0.000000
   10       12.681123   0.000000
   11       13.644348   0.000000
   12       14.488111   0.000000
 
 -0.3750000E+00  0.1250000E+00  0.0000000E+00  0.9765625E-03
    1       -5.412787   1.000000
    2       -0.209216   1.000000
    3        1.842635   1.000000
    4        3.378925   1.000000
    5        5.149675   1.000000
    6        6.647048   0.000000
    7        7.660101   0.000000
    8        8.283045   0.000000
    9        9.947997   0.000000
   10       12.803933   0.000000
   11       13.747787   0.000000
   12       14.539597   0.000000
 
 -0.3125000E+00  0.1250000E+00  0.0000000E+00  0.9765625E-03
    1       -5.963836   1.000000
    2        0.655935   1.000000
    3        2.175982   1.000000
    4        3.460840   1.000000
    5        4.962388   1.000000
    6        6.910985   0.000000
    7        7.741047   0.000000
    8        8.227941   0.000000
    9        9.435608   0.000000
   10       13.115362   0.000000
   11       13.768287   0.000000
   12       14.489031   0.000000
 
 -0.2500000E+00  0.1250000E+00  0.0000000E+00  0.4882812E-03
    1       -6.401540   1.000000
    2        1.372736   1.000000
    3        2.626175   1.000000
    4        3.574949   1.000000
    5        4.690428   1.000000
    6        7.179091   0.000000
    7        8.013070   0.000000
    8        8.230213   0.000000
    9        8.871035   0.000000
   10       13.417029   0.000000
   11       13.951502   0.000000
   12       14.491300   0.000000
 
  0.0000000E+00  0.1875000E+00  0.0000000E+00  0.4882812E-03
    1       -6.520528   1.000000
    2        1.956096   1.000000
    3        2.858336   1.000000
    4        3.604049   1.000000
    5        4.190719   1.000000
    6        7.373096   0.000000
    7        8.123551   0.000000
    8        8.246305   0.000000
    9        8.716310   0.000000
   10       11.818891   0.000000
   11       13.773902   0.000000
   12       14.313307   0.000000
 
  0.6250000E-01  0.1875000E+00  0.0000000E+00  0.9765625E-03
    1       -6.243321   1.000000
    2        1.411261   1.000000
    3        2.654657   1.000000
    4        3.499829   1.000000
    5        4.322510   1.000000
    6        7.270425   0.000000
    7        7.815183   0.000000
    8        8.264790   0.000000
    9        9.078579   0.000000
   10       12.143310   0.000000
   11       13.045905   0.000000
   12       14.739315   0.000000
 
  0.1250000E+00  0.1875000E+00  0.0000000E+00  0.9765625E-03
    1       -5.842842   1.000000
    2        0.749426   1.000000
    3        2.184036   1.000000
    4        3.406007   1.000000
    5        4.676335   1.000000
    6        7.038780   0.000000
    7        7.449830   0.000000
    8        8.423275   0.000000
    9        9.609800   0.000000
   10       12.622205   0.000000
   11       12.780955   0.000000
   12       14.388637   0.000000
 
  0.1875000E+00  0.1875000E+00  0.0000000E+00  0.9765625E-03
    1       -5.326369   1.000000
    2       -0.002202   1.000000
    3        1.649119   1.000000
    4        3.355424   1.000000
    5        5.122537   1.000000
    6        6.699092   0.000000
    7        7.141404   0.000000
    8        8.623875   0.000000
    9       10.245100   0.000000
   10       12.282405   0.000000
   11       14.117628   0.000000
   12       14.566465   0.000000
 
  0.2500000E+00  0.1875000E+00  0.0000000E+00  0.9765625E-03
    1       -4.703685   1.000000
    2       -0.830622   1.000000
    3        1.191380   1.000000
    4        3.361076   1.000000
    5        5.537043   1.000000
    6        6.312964   0.000000
    7        6.988987   0.000000
    8        8.753925   0.000000
    9       10.861249   0.000000
   10       12.096451   0.000000
   11       14.127399   0.000000
   12       14.719333   0.000000
 
  0.3125000E+00  0.1875000E+00  0.0000000E+00  0.9765625E-03
    1       -3.989445   1.000000
    2       -1.695621   1.000000
    3        0.859034   1.000000
    4        3.413901   1.000000
    5        5.784124   0.999421
    6        5.955020   0.056527
    7        7.100892   0.000000
    8        8.722146   0.000000
    9       11.238161   0.000000
   10       12.186750   0.000000
   11       14.087806   0.000000
   12       15.134506   0.000000
 
  0.3750000E+00  0.1875000E+00  0.0000000E+00  0.9765625E-03
    1       -3.234647   1.000000
    2       -2.516769   1.000000
    3        0.659539   1.000000
    4        3.480791   1.000000
    5        5.706129   1.000000
    6        5.860533   0.861678
    7        7.420319   0.000000
    8        8.513046   0.000000
    9       11.308675   0.000000
   10       12.475726   0.000000
   11       14.051276   0.000000
   12       15.197482   0.000000
 
  0.4375000E+00  0.1875000E+00  0.0000000E+00  0.9765625E-03
    1       -3.458041   1.000000
    2       -2.261302   1.000000
    3        0.594716   1.000000
    4        3.514451   1.000000
    5        5.640598   1.000000
    6        5.880688   0.697705
    7        7.675756   0.000000
    8        8.263632   0.000000
    9       11.251536   0.000000
   10       12.636983   0.000000
   11       14.025541   0.000000
   12       15.221923   0.000000
 
  0.5000000E+00  0.1875000E+00  0.0000000E+00  0.9765625E-03
    1       -4.205872   1.000000
    2       -1.393111   1.000000
    3        0.676048   1.000000
    4        3.494967   1.000000
    5        5.784959   0.999371
    6        5.859635   0.867205
    7        7.556998   0.000000
    8        8.283584   0.000000
    9       11.062889   0.000000
   10       12.639608   0.000000
   11       14.022461   0.000000
   12       15.196070   0.000000
 
 -0.4375000E+00  0.1875000E+00  0.0000000E+00  0.9765625E-03
    1       -4.889312   1.000000
    2       -0.552183   1.000000
    3        0.942454   1.000000
    4        3.453869   1.000000
    5        5.706728   1.000000
    6        6.094894   0.000000
    7        7.408174   0.000000
    8        8.354798   0.000000
    9       10.659639   0.000000
   10       12.673637   0.000000
   11       14.070657   0.000000
   12       15.101648   0.000000
 
 -0.3750000E+00  0.1875000E+00  0.0000000E+00  0.4882812E-03
    1       -5.479956   1.000000
    2        0.137610   1.000000
    3        1.459549   1.000000
    4        3.434899   1.000000
    5        5.376320   1.000000
    6        6.494801   0.000000
    7        7.492359   0.000000
    8        8.319806   0.000000
    9       10.075898   0.000000
   10       12.840395   0.000000
   11       14.172114   0.000000
   12       14.941040   0.000000
 
  0.0000000E+00  0.2500000E+00  0.0000000E+00  0.4882812E-03
    1       -6.028632   1.000000
    2        1.011784   1.000000
    3        2.716562   1.000000
    4        3.433760   1.000000
    5        4.151720   1.000000
    6        7.263331   0.000000
    7        7.894208   0.000000
    8        8.123125   0.000000
    9        9.224976   0.000000
   10       12.052325   0.000000
   11       12.813082   0.000000
   12       15.018443   0.000000
 
  0.6250000E-01  0.2500000E+00  0.0000000E+00  0.9765625E-03
    1       -5.690238   1.000000
    2        0.491993   1.000000
    3        2.368418   1.000000
    4        3.367850   1.000000
    5        4.327205   1.000000
    6        7.108351   0.000000
    7        7.685054   0.000000
    8        8.291813   0.000000
    9        9.551934   0.000000
   10       12.331155   0.000000
   11       12.567205   0.000000
   12       15.088896   0.000000
 
  0.1250000E+00  0.2500000E+00  0.0000000E+00  0.9765625E-03
    1       -5.233954   1.000000
    2       -0.043747   1.000000
    3        1.665632   1.000000
    4        3.344787   1.000000
    5        4.813731   1.000000
    6        6.746343   0.000000
    7        7.380537   0.000000
    8        8.551652   0.000000
    9       10.105683   0.000000
   10       12.351736   0.000000
   11       12.916852   0.000000
   12       14.507842   0.000000
 
  0.1875000E+00  0.2500000E+00  0.0000000E+00  0.9765625E-03
    1       -4.668202   1.000000
    2       -0.598041   1.000000
    3        0.907039   1.000000
    4        3.391764   1.000000
    5        5.411366   1.000000
    6        6.255148   0.000000
    7        7.102972   0.000000
    8        8.714274   0.000000
    9       10.808360   0.000000
   10       12.187205   0.000000
   11       13.738393   0.000000
   12       15.573970   0.000000
 
  0.2500000E+00  0.2500000E+00  0.0000000E+00  0.9765625E-03
    1       -4.006056   1.000000
    2       -1.223898   1.000000
    3        0.281312   1.000000
    4        3.516016   1.000000
    5        5.735464   0.999998
    6        6.032105   0.000083
    7        6.903267   0.000000
    8        8.676770   0.000000
    9       11.548022   0.000000
   10       12.073227   0.000000
   11       14.405772   0.000000
   12       14.843583   0.000000
 
  0.3125000E+00  0.2500000E+00  0.0000000E+00  0.9765625E-03
    1       -3.277979   1.000000
    2       -1.933932   1.000000
    3       -0.115598   1.000000
    4        3.693307   1.000000
    5        5.283757   1.000000
    6        6.511941   0.000000
    7        6.912405   0.000000
    8        8.419815   0.000000
    9       11.993569   0.000000
   10       12.189086   0.000000
   11       14.559351   0.000000
   12       15.607620   0.000000
 
  0.3750000E+00  0.2500000E+00  0.0000000E+00  0.9765625E-03
    1       -2.905748   1.000000
    2       -2.278141   1.000000
    3       -0.288709   1.000000
    4        3.825529   1.000000
    5        5.038651   1.000000
    6        6.573822   0.000000
    7        7.314388   0.000000
    8        8.044899   0.000000
    9       11.916433   0.000000
   10       12.560955   0.000000
   11       14.599628   0.000000
   12       15.833265   0.000000
 
  0.4375000E+00  0.2500000E+00  0.0000000E+00  0.9765625E-03
    1       -3.573295   1.000000
    2       -1.570676   1.000000
    3       -0.232756   1.000000
    4        3.768160   1.000000
    5        5.160626   1.000000
    6        6.513192   0.000000
    7        7.380900   0.000000
    8        8.005508   0.000000
    9       11.739279   0.000000
   10       12.623820   0.000000
   11       14.471215   0.000000
   12       15.897486   0.000000
 
  0.5000000E+00  0.2500000E+00  0.0000000E+00  0.4882812E-03
    1       -4.268637   1.000000
    2       -0.946482   1.000000
    3        0.169567   1.000000
    4        3.598860   1.000000
    5        5.566884   1.000000
    6        6.221238   0.000000
    7        7.269883   0.000000
    8        8.255099   0.000000
    9       11.310913   0.000000
   10       12.608072   0.000000
   11       14.263085   0.000000
   12       15.862224   0.000000
 
  0.0000000E+00  0.3125000E+00  0.0000000E+00  0.4882812E-03
    1       -5.415180   1.000000
    2        0.006991   1.000000
    3        2.559911   1.000000
    4        3.311548   1.000000
    5        3.991589   1.000000
    6        7.156320   0.000000
    7        7.980199   0.000000
    8        8.147015   0.000000
    9        9.508159   0.000000
   10       12.244306   0.000000
   11       12.531010   0.000000
   12       14.800404   0.000000
 
  0.6250000E-01  0.3125000E+00  0.0000000E+00  0.9765625E-03
    1       -5.021862   1.000000
    2       -0.492089   1.000000
    3        2.118508   1.000000
    4        3.287273   1.000000
    5        4.225527   1.000000
    6        6.947677   0.000000
    7        7.817805   0.000000
    8        8.421442   0.000000
    9        9.737746   0.000000
   10       12.506331   0.000000
   11       12.512954   0.000000
   12       14.397692   0.000000
 
  0.1250000E+00  0.3125000E+00  0.0000000E+00  0.9765625E-03
    1       -4.517032   1.000000
    2       -0.945467   1.000000
    3        1.296427   1.000000
    4        3.334957   1.000000
    5        4.811694   1.000000
    6        6.464949   0.000000
    7        7.584972   0.000000
    8        8.643189   0.000000
    9       10.278425   0.000000
   10       12.511772   0.000000
   11       13.078840   0.000000
   12       14.347316   0.000000
 
  0.1875000E+00  0.3125000E+00  0.0000000E+00  0.9765625E-03
    1       -3.911795   1.000000
    2       -1.343211   1.000000
    3        0.412609   1.000000
    4        3.478786   1.000000
    5        5.484909   1.000000
    6        5.858777   0.872343
    7        7.391068   0.000000
    8        8.634482   0.000000
    9       10.968108   0.000000
   10       12.533592   0.000000
   11       13.900216   0.000000
   12       14.466397   0.000000
 
  0.2500000E+00  0.3125000E+00  0.0000000E+00  0.9765625E-03
    1       -3.229676   1.000000
    2       -1.715231   1.000000
    3       -0.382903   1.000000
    4        3.729141   1.000000
    5        5.243188   1.000000
    6        6.167737   0.000000
    7        7.266041   0.000000
    8        8.367227   0.000000
    9       11.617932   0.000000
   10       12.595417   0.000000
   11       14.732644   0.000000
   12       14.873632   0.000000
 
  0.3125000E+00  0.3125000E+00  0.0000000E+00  0.9765625E-03
    1       -2.598054   1.000000
    2       -2.087870   1.000000
    3       -0.899604   1.000000
    4        4.075798   1.000000
    5        4.692119   1.000000
    6        6.788217   0.000000
    7        7.243145   0.000000
    8        7.908217   0.000000
    9       12.020043   0.000000
   10       12.692805   0.000000
   11       15.074072   0.000000
   12       15.523372   0.000000
 
  0.3750000E+00  0.3125000E+00  0.0000000E+00  0.4882812E-03
    1       -2.914225   1.000000
    2       -1.800804   1.000000
    3       -0.886831   1.000000
    4        4.127555   1.000000
    5        4.624568   1.000000
    6        7.004524   0.000000
    7        7.359774   0.000000
    8        7.605007   0.000000
    9       12.084171   0.000000
   10       12.684844   0.000000
   11       14.936537   0.000000
   12       17.290380   0.000000
 
  0.0000000E+00  0.3750000E+00  0.0000000E+00  0.4882812E-03
    1       -4.692890   1.000000
    2       -1.011537   1.000000
    3        2.419995   1.000000
    4        3.238533   1.000000
    5        3.782715   1.000000
    6        7.067637   0.000000
    7        8.246110   0.000000
    8        8.266194   0.000000
    9        9.481437   0.000000
   10       12.437933   0.000000
   11       12.668057   0.000000