       N       E                     dE             d eps       ncg     rms          rms(c)
RMM:   1     0.447745338304E+02    0.44775E+02   -0.24479E+03  7884   0.640E+02
RMM:   2    -0.103100547984E+02   -0.55085E+02   -0.47072E+02  7884   0.150E+02
RMM:   3    -0.241522890556E+02   -0.13842E+02   -0.97883E+01  7884   0.515E+01
RMM:   4    -0.278377125280E+02   -0.36854E+01   -0.23083E+01  7884   0.370E+01
RMM:   5    -0.287215482138E+02   -0.88384E+00   -0.56868E+00  7884   0.142E+01
RMM:   6    -0.289169916020E+02   -0.19544E+00   -0.13466E+00  7884   0.866E+00
RMM:   7    -0.289713304392E+02   -0.54339E-01   -0.42502E-01  7884   0.358E+00
RMM:   8    -0.289868463542E+02   -0.15516E-01   -0.11788E-01  7884   0.233E+00
RMM:   9    -0.289935044278E+02   -0.66581E-02   -0.59216E-02 17322   0.993E-01
RMM:  10    -0.289938462427E+02   -0.34181E-03   -0.30671E-03 17160   0.183E-01
RMM:  11    -0.289938555009E+02   -0.92582E-05   -0.77543E-05 15319   0.315E-02
RMM:  12    -0.289938559400E+02   -0.43907E-06   -0.36820E-06 12774   0.638E-03    0.206E+01
RMM:  13    -0.242330109292E+02    0.47608E+01   -0.89750E+00 15768   0.173E+01    0.460E+00
RMM:  14    -0.241665125916E+02    0.66498E-01   -0.15547E-01 15775   0.226E+00    0.347E+00
RMM:  15    -0.241416473993E+02    0.24865E-01   -0.23327E-02 15768   0.877E-01    0.415E-01
RMM:  16    -0.241391957959E+02    0.24516E-02   -0.43658E-03 15768   0.395E-01    0.961E-02
RMM:  17    -0.241392001199E+02   -0.43241E-05   -0.25314E-04 15780   0.948E-02    0.748E-02
RMM:  18    -0.241391152431E+02    0.84877E-04   -0.97783E-05 15768   0.531E-02    0.371E-03
RMM:  19    -0.241391146053E+02    0.63778E-06   -0.15103E-06 12711   0.638E-03
   1 F= -.24139115E+02 E0= -.24138910E+02  d E =-.241391E+02
       N       E                     dE             d eps       ncg     rms          rms(c)
RMM:   1    -0.241394899931E+02   -0.37475E-03   -0.34025E-02 15768   0.119E+00    0.588E-02
RMM:   2    -0.241393960894E+02    0.93904E-04   -0.22235E-04 15768   0.142E-01    0.370E-02
RMM:   3    -0.241393638066E+02    0.32283E-04   -0.61246E-05 15768   0.427E-02    0.115E-02
RMM:   4    -0.241393610608E+02    0.27458E-05   -0.79495E-06 15676   0.160E-02    0.283E-03
RMM:   5    -0.241393610246E+02    0.36175E-07   -0.20174E-07  9777   0.349E-03
   2 F= -.24139361E+02 E0= -.24139149E+02  d E =-.246419E-03
       N       E                     dE             d eps       ncg     rms          rms(c)
RMM:   1    -0.241394021680E+02   -0.41107E-04   -0.22073E-03 15768   0.304E-01    0.147E-02
RMM:   2    -0.241393962110E+02    0.59570E-05   -0.14058E-05 15348   0.361E-02    0.921E-03
RMM:   3    -0.241393941281E+02    0.20829E-05   -0.43150E-06 14385   0.112E-02    0.251E-03
RMM:   4    -0.241393940199E+02    0.10814E-06   -0.35746E-07  9357   0.383E-03
   3 F= -.24139394E+02 E0= -.24139184E+02  d E =-.329954E-04
