 vasp.5.4.4.18Apr17-6-g9f103f2a35 (build Nov 22 2017 20:28:56) complex          
  
 executed on             LinuxIFC date 2019.09.11  22:48:34
 running on   28 total cores
 distrk:  each k-point on   28 cores,    1 groups
 distr:  one band on NCORES_PER_BAND=   7 cores,    4 groups


--------------------------------------------------------------------------------------------------------


 INCAR:
 POTCAR:    PAW_PBE Ti 08Apr2002                  
 POTCAR:    PAW_PBE B 06Sep2000                   
 POTCAR:    PAW_PBE Ti 08Apr2002                  
   VRHFIN =Ti: d3 s1                                                            
   LEXCH  = PE                                                                  
   EATOM  =    94.7928 eV,    6.9671 Ry                                         
                                                                                
   TITEL  = PAW_PBE Ti 08Apr2002                                                
   LULTRA =        F    use ultrasoft PP ?                                      
   IUNSCR =        1    unscreen: 0-lin 1-nonlin 2-no                           
   RPACOR =    2.200    partial core radius                                     
   POMASS =   47.880; ZVAL   =    4.000    mass and valenz                      
   RCORE  =    2.800    outmost cutoff radius                                   
   RWIGS  =    2.500; RWIGS  =    1.323    wigner-seitz radius (au A)           
   ENMAX  =  178.330; ENMIN  =  133.747 eV                                      
   RCLOC  =    2.215    cutoff for local pot                                    
   LCOR   =        T    correct aug charges                                     
   LPAW   =        T    paw PP                                                  
   EAUG   =  328.883                                                            
   DEXC   =    0.000                                                            
   RMAX   =    2.868    core radius for proj-oper                               
   RAUG   =    1.300    factor for augmentation sphere                          
   RDEP   =    2.885    radius for radial grids                                 
   RDEPT  =    2.320    core radius for aug-charge                              
                                                                                
   Atomic configuration                                                         
    9 entries                                                                   
     n  l   j            E        occ.                                          
     1  0  0.50     -4865.3608   2.0000                                         
     2  0  0.50      -533.1367   2.0000                                         
     2  1  1.50      -440.5031   6.0000                                         
     3  0  0.50       -59.3186   2.0000                                         
     3  1  1.50       -35.7012   6.0000                                         
     3  2  2.50        -1.9157   3.0000                                         
     4  0  0.50        -3.7291   1.0000                                         
     4  1  1.50        -4.0817   0.0000                                         
     4  3  2.50        -1.3606   0.0000                                         
   Description                                                                  
     l       E           TYP  RCUT    TYP  RCUT                                 
     2     -1.9156924     23  2.800                                             
     2     -0.4062961     23  2.800                                             
     0     -3.7290832     23  2.800                                             
     0     20.4087390     23  2.800                                             
     1     -5.4423304     23  2.800                                             
  local pseudopotential read in
  partial core-charges read in
  partial kinetic energy density read in
  atomic valenz-charges read in
  non local Contribution for L=           2  read in
    real space projection operators read in
  non local Contribution for L=           2  read in
    real space projection operators read in
  non local Contribution for L=           0  read in
    real space projection operators read in
  non local Contribution for L=           0  read in
    real space projection operators read in
  non local Contribution for L=           1  read in
    real space projection operators read in
    PAW grid and wavefunctions read in
 
   number of l-projection  operators is LMAX  =           5
   number of lm-projection operators is LMMAX =          15
 
 POTCAR:    PAW_PBE B 06Sep2000                   
   VRHFIN =B: s2p1                                                              
   LEXCH  = PE                                                                  
   EATOM  =    71.1703 eV,    5.2309 Ry                                         
                                                                                
   TITEL  = PAW_PBE B 06Sep2000                                                 
   LULTRA =        F    use ultrasoft PP ?                                      
   IUNSCR =        1    unscreen: 0-lin 1-nonlin 2-no                           
   RPACOR =    1.200    partial core radius                                     
   POMASS =   10.811; ZVAL   =    3.000    mass and valenz                      
   RCORE  =    1.700    outmost cutoff radius                                   
   RWIGS  =    1.710; RWIGS  =    0.905    wigner-seitz radius (au A)           
   ENMAX  =  318.614; ENMIN  =  238.960 eV                                      
   ICORE  =        2    local potential                                         
   LCOR   =        T    correct aug charges                                     
   LPAW   =        T    paw PP                                                  
   EAUG   =  535.514                                                            
   DEXC   =    0.000                                                            
   RMAX   =    1.732    core radius for proj-oper                               
   RAUG   =    1.300    factor for augmentation sphere                          
   RDEP   =    1.757    radius for radial grids                                 
   RDEPT  =    1.436    core radius for aug-charge                              
                                                                                
   Atomic configuration                                                         
    4 entries                                                                   
     n  l   j            E        occ.                                          
     1  0  0.50      -180.5896   2.0000                                         
     2  0  0.50        -9.4431   2.0000                                         
     2  1  0.50        -3.6068   1.0000                                         
     3  2  1.50        -4.0817   0.0000                                         
   Description                                                                  
     l       E           TYP  RCUT    TYP  RCUT                                 
     0     -9.4430752     23  1.500                                             
     0      0.8675899     23  1.500                                             
     1     -3.6067955     23  1.700                                             
     1      6.1086146     23  1.700                                             
     2     -4.0817478      7  1.700                                             
  local pseudopotential read in
  partial core-charges read in
  partial kinetic energy density read in
  atomic valenz-charges read in
  non local Contribution for L=           0  read in
    real space projection operators read in
  non local Contribution for L=           0  read in
    real space projection operators read in
  non local Contribution for L=           1  read in
    real space projection operators read in
  non local Contribution for L=           1  read in
    real space projection operators read in
    PAW grid and wavefunctions read in
 
   number of l-projection  operators is LMAX  =           4
   number of lm-projection operators is LMMAX =           8
 
  PAW_PBE Ti 08Apr2002                  :
 energy of atom  1       EATOM=  -94.7928
 kinetic energy error for atom=    0.0001 (will be added to EATOM!!)
  PAW_PBE B 06Sep2000                   :
 energy of atom  2       EATOM=  -71.1703
 kinetic energy error for atom=    0.0007 (will be added to EATOM!!)
 
 
 POSCAR: Ti  B                                   
  positions in direct lattice
  No initial velocities read in
 exchange correlation table for  LEXCH =        8
   RHO(1)=    0.500       N(1)  =     2000
   RHO(2)=  100.500       N(2)  =     4000
 


--------------------------------------------------------------------------------------------------------


 ion  position               nearest neighbor table
   1  0.000  0.000  0.000-   2 2.38   2 2.38   3 2.38   3 2.38   3 2.44   3 2.44   2 2.44   2 2.44
                             2 2.44   3 2.44   2 2.44   3 2.44
   2  0.333  0.667  0.500-   3 1.75   3 1.83   3 1.83   1 2.38   1 2.38   1 2.44   1 2.44   1 2.44
                             1 2.44
   3  0.667  0.333  0.500-   2 1.75   2 1.83   2 1.83   1 2.38   1 2.38   1 2.44   1 2.44   1 2.44
                             1 2.44
 
  Warning from LATTYP: Monoclinic adjustement (A1->A3, A2->A1, A3->A2)!
  LATTYP: Found a base centered orthorhombic cell.
 ALAT       =     3.2149113455
 B/A-ratio  =     1.6340101958
 C/A-ratio  =     1.0033525549
  
  Lattice vectors:
  
 A1 = (   1.6074556728,   2.6265989586,   0.0000000000)
 A2 = (   1.6074556728,  -2.6265989586,   0.0000000000)
 A3 = (   0.0000000000,   0.0000000000,  -3.2256895123)


Analysis of symmetry for initial positions (statically):
=====================================================================
 Subroutine PRICEL returns:
 Original cell was already a primitive cell.
 

 Routine SETGRP: Setting up the symmetry group for a 
 base centered orthorhombic supercell.


 Subroutine GETGRP returns: Found  8 space group operations
 (whereof  8 operations were pure point group operations)
 out of a pool of  8 trial point group operations.


The static configuration has the point symmetry D_2h.


Analysis of symmetry for dynamics (positions and initial velocities):
=====================================================================
 Subroutine PRICEL returns:
 Original cell was already a primitive cell.
 

 Routine SETGRP: Setting up the symmetry group for a 
 base centered orthorhombic supercell.


 Subroutine GETGRP returns: Found  8 space group operations
 (whereof  8 operations were pure point group operations)
 out of a pool of  8 trial point group operations.


The dynamic configuration has the point symmetry D_2h.


 Subroutine INISYM returns: Found  8 space group operations
 (whereof  8 operations are pure point group operations),
 and found     1 'primitive' translations

 
 
 KPOINTS: A                                       

Automatic generation of k-mesh.
Space group operators:
 irot       det(A)        alpha          n_x          n_y          n_z        tau_x        tau_y        tau_z
    1     1.000000     0.000000     1.000000     0.000000     0.000000     0.000000     0.000000     0.000000
    2    -1.000000     0.000000     1.000000     0.000000     0.000000     0.000000     0.000000     0.000000
    3     1.000000   180.000000     0.000000     0.000000     1.000000     0.000000     0.000000     0.000000
    4    -1.000000   180.000000     0.000000     0.000000     1.000000     0.000000     0.000000     0.000000
    5     1.000000   180.000000     0.000000     1.000000     0.000000     0.000000     0.000000     0.000000
    6    -1.000000   180.000000     0.000000     1.000000     0.000000     0.000000     0.000000     0.000000
    7     1.000000   180.000000     1.000000     0.000000     0.000000     0.000000     0.000000     0.000000
    8    -1.000000   180.000000     1.000000     0.000000     0.000000     0.000000     0.000000     0.000000
 
 Subroutine IBZKPT returns following result:
 ===========================================
 
 Found    657 irreducible k-points:
 
 Following reciprocal coordinates:
            Coordinates               Weight
  0.000000  0.000000  0.000000      1.000000
  0.062500  0.000000  0.000000      4.000000
  0.125000  0.000000  0.000000      4.000000
  0.187500 -0.000000  0.000000      4.000000
  0.250000  0.000000  0.000000      4.000000
  0.312500 -0.000000  0.000000      4.000000
  0.375000 -0.000000  0.000000      4.000000
  0.437500 -0.000000  0.000000      4.000000
  0.500000  0.000000  0.000000      2.000000
  0.000000  0.062500  0.000000      2.000000
  0.062500  0.062500  0.000000      4.000000
  0.125000  0.062500  0.000000      4.000000
  0.187500  0.062500  0.000000      4.000000
  0.250000  0.062500  0.000000      4.000000
  0.312500  0.062500  0.000000      4.000000
  0.375000  0.062500  0.000000      4.000000
  0.437500  0.062500  0.000000      4.000000
  0.500000  0.062500  0.000000      4.000000
 -0.437500  0.062500  0.000000      4.000000
 -0.375000  0.062500  0.000000      4.000000
 -0.312500  0.062500  0.000000      4.000000
 -0.250000  0.062500  0.000000      4.000000
 -0.187500  0.062500  0.000000      4.000000
 -0.125000  0.062500  0.000000      2.000000
  0.000000  0.125000  0.000000      2.000000
  0.062500  0.125000  0.000000      4.000000
  0.125000  0.125000  0.000000      4.000000
  0.187500  0.125000  0.000000      4.000000
  0.250000  0.125000  0.000000      4.000000
  0.312500  0.125000  0.000000      4.000000
  0.375000  0.125000  0.000000      4.000000
  0.437500  0.125000  0.000000      4.000000
  0.500000  0.125000  0.000000      4.000000
 -0.437500  0.125000  0.000000      4.000000
 -0.375000  0.125000  0.000000      4.000000
 -0.312500  0.125000  0.000000      4.000000
 -0.250000  0.125000  0.000000      2.000000
  0.000000  0.187500  0.000000      2.000000
  0.062500  0.187500  0.000000      4.000000
  0.125000  0.187500  0.000000      4.000000
  0.187500  0.187500  0.000000      4.000000
  0.250000  0.187500  0.000000      4.000000
  0.312500  0.187500  0.000000      4.000000
  0.375000  0.187500  0.000000      4.000000
  0.437500  0.187500  0.000000      4.000000
  0.500000  0.187500  0.000000      4.000000
 -0.437500  0.187500  0.000000      4.000000
 -0.375000  0.187500  0.000000      2.000000
  0.000000  0.250000  0.000000      2.000000
  0.062500  0.250000  0.000000      4.000000
  0.125000  0.250000  0.000000      4.000000
  0.187500  0.250000  0.000000      4.000000
  0.250000  0.250000  0.000000      4.000000
  0.312500  0.250000  0.000000      4.000000
  0.375000  0.250000  0.000000      4.000000
  0.437500  0.250000  0.000000      4.000000
  0.500000  0.250000  0.000000      2.000000
  0.000000  0.312500  0.000000      2.000000
  0.062500  0.312500  0.000000      4.000000
  0.125000  0.312500  0.000000      4.000000
  0.187500  0.312500  0.000000      4.000000
  0.250000  0.312500  0.000000      4.000000
  0.312500  0.312500  0.000000      4.000000
  0.375000  0.312500  0.000000      2.000000
  0.000000  0.375000  0.000000      2.000000
  0.062500  0.375000  0.000000      4.000000
  0.125000  0.375000  0.000000      4.000000
  0.187500  0.375000  0.000000      4.000000
  0.250000  0.375000  0.000000      2.000000
  0.000000  0.437500  0.000000      2.000000
  0.062500  0.437500  0.000000      4.000000
  0.125000  0.437500  0.000000      2.000000
  0.000000  0.500000  0.000000      1.000000
  0.000000  0.000000  0.062500      2.000000
  0.062500  0.000000  0.062500      8.000000
  0.125000  0.000000  0.062500      8.000000
  0.187500 -0.000000  0.062500      8.000000
  0.250000  0.000000  0.062500      8.000000
  0.312500 -0.000000  0.062500      8.000000
  0.375000 -0.000000  0.062500      8.000000
  0.437500 -0.000000  0.062500      8.000000
  0.500000  0.000000  0.062500      4.000000
  0.000000  0.062500  0.062500      4.000000
  0.062500  0.062500  0.062500      8.000000
  0.125000  0.062500  0.062500      8.000000
  0.187500  0.062500  0.062500      8.000000
  0.250000  0.062500  0.062500      8.000000
  0.312500  0.062500  0.062500      8.000000
  0.375000  0.062500  0.062500      8.000000
  0.437500  0.062500  0.062500      8.000000
  0.500000  0.062500  0.062500      8.000000
 -0.437500  0.062500  0.062500      8.000000
 -0.375000  0.062500  0.062500      8.000000
 -0.312500  0.062500  0.062500      8.000000
 -0.250000  0.062500  0.062500      8.000000
 -0.187500  0.062500  0.062500      8.000000
 -0.125000  0.062500  0.062500      4.000000
  0.000000  0.125000  0.062500      4.000000
  0.062500  0.125000  0.062500      8.000000
  0.125000  0.125000  0.062500      8.000000
  0.187500  0.125000  0.062500      8.000000
  0.250000  0.125000  0.062500      8.000000
  0.312500  0.125000  0.062500      8.000000
  0.375000  0.125000  0.062500      8.000000
  0.437500  0.125000  0.062500      8.000000
  0.500000  0.125000  0.062500      8.000000
 -0.437500  0.125000  0.062500      8.000000
 -0.375000  0.125000  0.062500      8.000000
 -0.312500  0.125000  0.062500      8.000000
 -0.250000  0.125000  0.062500      4.000000
  0.000000  0.187500  0.062500      4.000000
  0.062500  0.187500  0.062500      8.000000
  0.125000  0.187500  0.062500      8.000000
  0.187500  0.187500  0.062500      8.000000
  0.250000  0.187500  0.062500      8.000000
  0.312500  0.187500  0.062500      8.000000
  0.375000  0.187500  0.062500      8.000000
  0.437500  0.187500  0.062500      8.000000
  0.500000  0.187500  0.062500      8.000000
 -0.437500  0.187500  0.062500      8.000000
 -0.375000  0.187500  0.062500      4.000000
  0.000000  0.250000  0.062500      4.000000
  0.062500  0.250000  0.062500      8.000000
  0.125000  0.250000  0.062500      8.000000
  0.187500  0.250000  0.062500      8.000000
  0.250000  0.250000  0.062500      8.000000
  0.312500  0.250000  0.062500      8.000000
  0.375000  0.250000  0.062500      8.000000
  0.437500  0.250000  0.062500      8.000000
  0.500000  0.250000  0.062500      4.000000
  0.000000  0.312500  0.062500      4.000000
  0.062500  0.312500  0.062500      8.000000
  0.125000  0.312500  0.062500      8.000000
  0.187500  0.312500  0.062500      8.000000
  0.250000  0.312500  0.062500      8.000000
  0.312500  0.312500  0.062500      8.000000
  0.375000  0.312500  0.062500      4.000000
  0.000000  0.375000  0.062500      4.000000
  0.062500  0.375000  0.062500      8.000000
  0.125000  0.375000  0.062500      8.000000
  0.187500  0.375000  0.062500      8.000000
  0.250000  0.375000  0.062500      4.000000
  0.000000  0.437500  0.062500      4.000000
  0.062500  0.437500  0.062500      8.000000
  0.125000  0.437500  0.062500      4.000000
  0.000000  0.500000  0.062500      2.000000
  0.000000  0.000000  0.125000      2.000000
  0.062500  0.000000  0.125000      8.000000
  0.125000  0.000000  0.125000      8.000000
  0.187500 -0.000000  0.125000      8.000000
  0.250000  0.000000  0.125000      8.000000
  0.312500 -0.000000  0.125000      8.000000
  0.375000 -0.000000  0.125000      8.000000
  0.437500 -0.000000  0.125000      8.000000
  0.500000  0.000000  0.125000      4.000000
  0.000000  0.062500  0.125000      4.000000
  0.062500  0.062500  0.125000      8.000000
  0.125000  0.062500  0.125000      8.000000
  0.187500  0.062500  0.125000      8.000000
  0.250000  0.062500  0.125000      8.000000
  0.312500  0.062500  0.125000      8.000000
  0.375000  0.062500  0.125000      8.000000
  0.437500  0.062500  0.125000      8.000000
  0.500000  0.062500  0.125000      8.000000
 -0.437500  0.062500  0.125000      8.000000
 -0.375000  0.062500  0.125000      8.000000
 -0.312500  0.062500  0.125000      8.000000
 -0.250000  0.062500  0.125000      8.000000
 -0.187500  0.062500  0.125000      8.000000
 -0.125000  0.062500  0.125000      4.000000
  0.000000  0.125000  0.125000      4.000000
  0.062500  0.125000  0.125000      8.000000
  0.125000  0.125000  0.125000      8.000000
  0.187500  0.125000  0.125000      8.000000
  0.250000  0.125000  0.125000      8.000000
  0.312500  0.125000  0.125000      8.000000
  0.375000  0.125000  0.125000      8.000000
  0.437500  0.125000  0.125000      8.000000
  0.500000  0.125000  0.125000      8.000000
 -0.437500  0.125000  0.125000      8.000000
 -0.375000  0.125000  0.125000      8.000000
 -0.312500  0.125000  0.125000      8.000000
 -0.250000  0.125000  0.125000      4.000000
  0.000000  0.187500  0.125000      4.000000
  0.062500  0.187500  0.125000      8.000000
  0.125000  0.187500  0.125000      8.000000
  0.187500  0.187500  0.125000      8.000000
  0.250000  0.187500  0.125000      8.000000
  0.312500  0.187500  0.125000      8.000000
  0.375000  0.187500  0.125000      8.000000
  0.437500  0.187500  0.125000      8.000000
  0.500000  0.187500  0.125000      8.000000
 -0.437500  0.187500  0.125000      8.000000
 -0.375000  0.187500  0.125000      4.000000
  0.000000  0.250000  0.125000      4.000000
  0.062500  0.250000  0.125000      8.000000
  0.125000  0.250000  0.125000      8.000000
  0.187500  0.250000  0.125000      8.000000
  0.250000  0.250000  0.125000      8.000000
  0.312500  0.250000  0.125000      8.000000
  0.375000  0.250000  0.125000      8.000000
  0.437500  0.250000  0.125000      8.000000
  0.500000  0.250000  0.125000      4.000000
  0.000000  0.312500  0.125000      4.000000
  0.062500  0.312500  0.125000      8.000000
  0.125000  0.312500  0.125000      8.000000
  0.187500  0.312500  0.125000      8.000000
  0.250000  0.312500  0.125000      8.000000
  0.312500  0.312500  0.125000      8.000000
  0.375000  0.312500  0.125000      4.000000
  0.000000  0.375000  0.125000      4.000000
  0.062500  0.375000  0.125000      8.000000
  0.125000  0.375000  0.125000      8.000000
  0.187500  0.375000  0.125000      8.000000
  0.250000  0.375000  0.125000      4.000000
  0.000000  0.437500  0.125000      4.000000
  0.062500  0.437500  0.125000      8.000000
  0.125000  0.437500  0.125000      4.000000
  0.000000  0.500000  0.125000      2.000000
  0.000000  0.000000  0.187500      2.000000
  0.062500  0.000000  0.187500      8.000000
  0.125000  0.000000  0.187500      8.000000
  0.187500 -0.000000  0.187500      8.000000
  0.250000  0.000000  0.187500      8.000000
  0.312500 -0.000000  0.187500      8.000000
  0.375000 -0.000000  0.187500      8.000000
  0.437500 -0.000000  0.187500      8.000000
  0.500000  0.000000  0.187500      4.000000
  0.000000  0.062500  0.187500      4.000000
  0.062500  0.062500  0.187500      8.000000
  0.125000  0.062500  0.187500      8.000000
  0.187500  0.062500  0.187500      8.000000
  0.250000  0.062500  0.187500      8.000000
  0.312500  0.062500  0.187500      8.000000
  0.375000  0.062500  0.187500      8.000000
  0.437500  0.062500  0.187500      8.000000
  0.500000  0.062500  0.187500      8.000000
 -0.437500  0.062500  0.187500      8.000000
 -0.375000  0.062500  0.187500      8.000000
 -0.312500  0.062500  0.187500      8.000000
 -0.250000  0.062500  0.187500      8.000000
 -0.187500  0.062500  0.187500      8.000000
 -0.125000  0.062500  0.187500      4.000000
  0.000000  0.125000  0.187500      4.000000
  0.062500  0.125000  0.187500      8.000000
  0.125000  0.125000  0.187500      8.000000
  0.187500  0.125000  0.187500      8.000000
  0.250000  0.125000  0.187500      8.000000
  0.312500  0.125000  0.187500      8.000000
  0.375000  0.125000  0.187500      8.000000
  0.437500  0.125000  0.187500      8.000000
  0.500000  0.125000  0.187500      8.000000
 -0.437500  0.125000  0.187500      8.000000
 -0.375000  0.125000  0.187500      8.000000
 -0.312500  0.125000  0.187500      8.000000
 -0.250000  0.125000  0.187500      4.000000
  0.000000  0.187500  0.187500      4.000000
  0.062500  0.187500  0.187500      8.000000
  0.125000  0.187500  0.187500      8.000000
  0.187500  0.187500  0.187500      8.000000
  0.250000  0.187500  0.187500      8.000000
  0.312500  0.187500  0.187500      8.000000
  0.375000  0.187500  0.187500      8.000000
  0.437500  0.187500  0.187500      8.000000
  0.500000  0.187500  0.187500      8.000000
 -0.437500  0.187500  0.187500      8.000000
 -0.375000  0.187500  0.187500      4.000000
  0.000000  0.250000  0.187500      4.000000
  0.062500  0.250000  0.187500      8.000000
  0.125000  0.250000  0.187500      8.000000
  0.187500  0.250000  0.187500      8.000000
  0.250000  0.250000  0.187500      8.000000
  0.312500  0.250000  0.187500      8.000000
  0.375000  0.250000  0.187500      8.000000
  0.437500  0.250000  0.187500      8.000000
  0.500000  0.250000  0.187500      4.000000
  0.000000  0.312500  0.187500      4.000000
  0.062500  0.312500  0.187500      8.000000
  0.125000  0.312500  0.187500      8.000000
  0.187500  0.312500  0.187500      8.000000
  0.250000  0.312500  0.187500      8.000000
  0.312500  0.312500  0.187500      8.000000
  0.375000  0.312500  0.187500      4.000000
  0.000000  0.375000  0.187500      4.000000
  0.062500  0.375000  0.187500      8.000000
  0.125000  0.375000  0.187500      8.000000
  0.187500  0.375000  0.187500      8.000000
  0.250000  0.375000  0.187500      4.000000
  0.000000  0.437500  0.187500      4.000000
  0.062500  0.437500  0.187500      8.000000
  0.125000  0.437500  0.187500      4.000000
  0.000000  0.500000  0.187500      2.000000
  0.000000  0.000000  0.250000      2.000000
  0.062500  0.000000  0.250000      8.000000
  0.125000  0.000000  0.250000      8.000000
  0.187500 -0.000000  0.250000      8.000000
  0.250000  0.000000  0.250000      8.000000
  0.312500 -0.000000  0.250000      8.000000
  0.375000 -0.000000  0.250000      8.000000
  0.437500 -0.000000  0.250000      8.000000
  0.500000  0.000000  0.250000      4.000000
  0.000000  0.062500  0.250000      4.000000
  0.062500  0.062500  0.250000      8.000000
  0.125000  0.062500  0.250000      8.000000
  0.187500  0.062500  0.250000      8.000000
  0.250000  0.062500  0.250000      8.000000
  0.312500  0.062500  0.250000      8.000000
  0.375000  0.062500  0.250000      8.000000
  0.437500  0.062500  0.250000      8.000000
  0.500000  0.062500  0.250000      8.000000
 -0.437500  0.062500  0.250000      8.000000
 -0.375000  0.062500  0.250000      8.000000
 -0.312500  0.062500  0.250000      8.000000
 -0.250000  0.062500  0.250000      8.000000
 -0.187500  0.062500  0.250000      8.000000
 -0.125000  0.062500  0.250000      4.000000
  0.000000  0.125000  0.250000      4.000000
  0.062500  0.125000  0.250000      8.000000
  0.125000  0.125000  0.250000      8.000000
  0.187500  0.125000  0.250000      8.000000
  0.250000  0.125000  0.250000      8.000000
  0.312500  0.125000  0.250000      8.000000
  0.375000  0.125000  0.250000      8.000000
  0.437500  0.125000  0.250000      8.000000
  0.500000  0.125000  0.250000      8.000000
 -0.437500  0.125000  0.250000      8.000000
 -0.375000  0.125000  0.250000      8.000000
 -0.312500  0.125000  0.250000      8.000000
 -0.250000  0.125000  0.250000      4.000000
  0.000000  0.187500  0.250000      4.000000
  0.062500  0.187500  0.250000      8.000000
  0.125000  0.187500  0.250000      8.000000
  0.187500  0.187500  0.250000      8.000000
  0.250000  0.187500  0.250000      8.000000
  0.312500  0.187500  0.250000      8.000000
  0.375000  0.187500  0.250000      8.000000
  0.437500  0.187500  0.250000      8.000000
  0.500000  0.187500  0.250000      8.000000
 -0.437500  0.187500  0.250000      8.000000
 -0.375000  0.187500  0.250000      4.000000
  0.000000  0.250000  0.250000      4.000000
  0.062500  0.250000  0.250000      8.000000
  0.125000  0.250000  0.250000      8.000000
  0.187500  0.250000  0.250000      8.000000
  0.250000  0.250000  0.250000      8.000000
  0.312500  0.250000  0.250000      8.000000
  0.375000  0.250000  0.250000      8.000000
  0.437500  0.250000  0.250000      8.000000
  0.500000  0.250000  0.250000      4.000000
  0.000000  0.312500  0.250000      4.000000
  0.062500  0.312500  0.250000      8.000000
  0.125000  0.312500  0.250000      8.000000
  0.187500  0.312500  0.250000      8.000000
  0.250000  0.312500  0.250000      8.000000
  0.312500  0.312500  0.250000      8.000000
  0.375000  0.312500  0.250000      4.000000
  0.000000  0.375000  0.250000      4.000000
  0.062500  0.375000  0.250000      8.000000
  0.125000  0.375000  0.250000      8.000000
  0.187500  0.375000  0.250000      8.000000
  0.250000  0.375000  0.250000      4.000000
  0.000000  0.437500  0.250000      4.000000
  0.062500  0.437500  0.250000      8.000000
  0.125000  0.437500  0.250000      4.000000
  0.000000  0.500000  0.250000      2.000000
  0.000000  0.000000  0.312500      2.000000
  0.062500  0.000000  0.312500      8.000000
  0.125000  0.000000  0.312500      8.000000
  0.187500 -0.000000  0.312500      8.000000
  0.250000  0.000000  0.312500      8.000000
  0.312500 -0.000000  0.312500      8.000000
  0.375000 -0.000000  0.312500      8.000000
  0.437500 -0.000000  0.312500      8.000000
  0.500000  0.000000  0.312500      4.000000
  0.000000  0.062500  0.312500      4.000000
  0.062500  0.062500  0.312500      8.000000
  0.125000  0.062500  0.312500      8.000000
  0.187500  0.062500  0.312500      8.000000
  0.250000  0.062500  0.312500      8.000000
  0.312500  0.062500  0.312500      8.000000
  0.375000  0.062500  0.312500      8.000000
  0.437500  0.062500  0.312500      8.000000
  0.500000  0.062500  0.312500      8.000000
 -0.437500  0.062500  0.312500      8.000000
 -0.375000  0.062500  0.312500      8.000000
 -0.312500  0.062500  0.312500      8.000000
 -0.250000  0.062500  0.312500      8.000000
 -0.187500  0.062500  0.312500      8.000000
 -0.125000  0.062500  0.312500      4.000000
  0.000000  0.125000  0.312500      4.000000
  0.062500  0.125000  0.312500      8.000000
  0.125000  0.125000  0.312500      8.000000
  0.187500  0.125000  0.312500      8.000000
  0.250000  0.125000  0.312500      8.000000
  0.312500  0.125000  0.312500      8.000000
  0.375000  0.125000  0.312500      8.000000
  0.437500  0.125000  0.312500      8.000000
  0.500000  0.125000  0.312500      8.000000
 -0.437500  0.125000  0.312500      8.000000
 -0.375000  0.125000  0.312500      8.000000
 -0.312500  0.125000  0.312500      8.000000
 -0.250000  0.125000  0.312500      4.000000
  0.000000  0.187500  0.312500      4.000000
  0.062500  0.187500  0.312500      8.000000
  0.125000  0.187500  0.312500      8.000000
  0.187500  0.187500  0.312500      8.000000
  0.250000  0.187500  0.312500      8.000000
  0.312500  0.187500  0.312500      8.000000
  0.375000  0.187500  0.312500      8.000000
  0.437500  0.187500  0.312500      8.000000
  0.500000  0.187500  0.312500      8.000000
 -0.437500  0.187500  0.312500      8.000000
 -0.375000  0.187500  0.312500      4.000000
  0.000000  0.250000  0.312500      4.000000
  0.062500  0.250000  0.312500      8.000000
  0.125000  0.250000  0.312500      8.000000
  0.187500  0.250000  0.312500      8.000000
  0.250000  0.250000  0.312500      8.000000
  0.312500  0.250000  0.312500      8.000000
  0.375000  0.250000  0.312500      8.000000
  0.437500  0.250000  0.312500      8.000000
  0.500000  0.250000  0.312500      4.000000
  0.000000  0.312500  0.312500      4.000000
  0.062500  0.312500  0.312500      8.000000
  0.125000  0.312500  0.312500      8.000000
  0.187500  0.312500  0.312500      8.000000
  0.250000  0.312500  0.312500      8.000000
  0.312500  0.312500  0.312500      8.000000
  0.375000  0.312500  0.312500      4.000000
  0.000000  0.375000  0.312500      4.000000
  0.062500  0.375000  0.312500      8.000000
  0.125000  0.375000  0.312500      8.000000
  0.187500  0.375000  0.312500      8.000000
  0.250000  0.375000  0.312500      4.000000
  0.000000  0.437500  0.312500      4.000000
  0.062500  0.437500  0.312500      8.000000
  0.125000  0.437500  0.312500      4.000000
  0.000000  0.500000  0.312500      2.000000
  0.000000  0.000000  0.375000      2.000000
  0.062500  0.000000  0.375000      8.000000
  0.125000  0.000000  0.375000      8.000000
  0.187500 -0.000000  0.375000      8.000000
  0.250000  0.000000  0.375000      8.000000
  0.312500 -0.000000  0.375000      8.000000
  0.375000 -0.000000  0.375000      8.000000
  0.437500 -0.000000  0.375000      8.000000
  0.500000  0.000000  0.375000      4.000000
  0.000000  0.062500  0.375000      4.000000
  0.062500  0.062500  0.375000      8.000000
  0.125000  0.062500  0.375000      8.000000
  0.187500  0.062500  0.375000      8.000000
  0.250000  0.062500  0.375000      8.000000
  0.312500  0.062500  0.375000      8.000000
  0.375000  0.062500  0.375000      8.000000
  0.437500  0.062500  0.375000      8.000000
  0.500000  0.062500  0.375000      8.000000
 -0.437500  0.062500  0.375000      8.000000
 -0.375000  0.062500  0.375000      8.000000
 -0.312500  0.062500  0.375000      8.000000
 -0.250000  0.062500  0.375000      8.000000
 -0.187500  0.062500  0.375000      8.000000
 -0.125000  0.062500  0.375000      4.000000
  0.000000  0.125000  0.375000      4.000000
  0.062500  0.125000  0.375000      8.000000
  0.125000  0.125000  0.375000      8.000000
  0.187500  0.125000  0.375000      8.000000
  0.250000  0.125000  0.375000      8.000000
  0.312500  0.125000  0.375000      8.000000
  0.375000  0.125000  0.375000      8.000000
  0.437500  0.125000  0.375000      8.000000
  0.500000  0.125000  0.375000      8.000000
 -0.437500  0.125000  0.375000      8.000000
 -0.375000  0.125000  0.375000      8.000000
 -0.312500  0.125000  0.375000      8.000000
 -0.250000  0.125000  0.375000      4.000000
  0.000000  0.187500  0.375000      4.000000
  0.062500  0.187500  0.375000      8.000000
  0.125000  0.187500  0.375000      8.000000
  0.187500  0.187500  0.375000      8.000000
  0.250000  0.187500  0.375000      8.000000
  0.312500  0.187500  0.375000      8.000000
  0.375000  0.187500  0.375000      8.000000
  0.437500  0.187500  0.375000      8.000000
  0.500000  0.187500  0.375000      8.000000
 -0.437500  0.187500  0.375000      8.000000
 -0.375000  0.187500  0.375000      4.000000
  0.000000  0.250000  0.375000      4.000000
  0.062500  0.250000  0.375000      8.000000
  0.125000  0.250000  0.375000      8.000000
  0.187500  0.250000  0.375000      8.000000
  0.250000  0.250000  0.375000      8.000000
  0.312500  0.250000  0.375000      8.000000
  0.375000  0.250000  0.375000      8.000000
  0.437500  0.250000  0.375000      8.000000
  0.500000  0.250000  0.375000      4.000000
  0.000000  0.312500  0.375000      4.000000
  0.062500  0.312500  0.375000      8.000000
  0.125000  0.312500  0.375000      8.000000
  0.187500  0.312500  0.375000      8.000000
  0.250000  0.312500  0.375000      8.000000
  0.312500  0.312500  0.375000      8.000000
  0.375000  0.312500  0.375000      4.000000
  0.000000  0.375000  0.375000      4.000000
  0.062500  0.375000  0.375000      8.000000
  0.125000  0.375000  0.375000      8.000000
  0.187500  0.375000  0.375000      8.000000
  0.250000  0.375000  0.375000      4.000000
  0.000000  0.437500  0.375000      4.000000
  0.062500  0.437500  0.375000      8.000000
  0.125000  0.437500  0.375000      4.000000
  0.000000  0.500000  0.375000      2.000000
  0.000000  0.000000  0.437500      2.000000
  0.062500  0.000000  0.437500      8.000000
  0.125000  0.000000  0.437500      8.000000
  0.187500 -0.000000  0.437500      8.000000
  0.250000  0.000000  0.437500      8.000000
  0.312500 -0.000000  0.437500      8.000000
  0.375000 -0.000000  0.437500      8.000000
  0.437500 -0.000000  0.437500      8.000000
  0.500000  0.000000  0.437500      4.000000
  0.000000  0.062500  0.437500      4.000000
  0.062500  0.062500  0.437500      8.000000
  0.125000  0.062500  0.437500      8.000000
  0.187500  0.062500  0.437500      8.000000
  0.250000  0.062500  0.437500      8.000000
  0.312500  0.062500  0.437500      8.000000
  0.375000  0.062500  0.437500      8.000000
  0.437500  0.062500  0.437500      8.000000
  0.500000  0.062500  0.437500      8.000000
 -0.437500  0.062500  0.437500      8.000000
 -0.375000  0.062500  0.437500      8.000000
 -0.312500  0.062500  0.437500      8.000000
 -0.250000  0.062500  0.437500      8.000000
 -0.187500  0.062500  0.437500      8.000000
 -0.125000  0.062500  0.437500      4.000000
  0.000000  0.125000  0.437500      4.000000
  0.062500  0.125000  0.437500      8.000000
  0.125000  0.125000  0.437500      8.000000
  0.187500  0.125000  0.437500      8.000000
  0.250000  0.125000  0.437500      8.000000
  0.312500  0.125000  0.437500      8.000000
  0.375000  0.125000  0.437500      8.000000
  0.437500  0.125000  0.437500      8.000000
  0.500000  0.125000  0.437500      8.000000
 -0.437500  0.125000  0.437500      8.000000
 -0.375000  0.125000  0.437500      8.000000
 -0.312500  0.125000  0.437500      8.000000
 -0.250000  0.125000  0.437500      4.000000
  0.000000  0.187500  0.437500      4.000000
  0.062500  0.187500  0.437500      8.000000
  0.125000  0.187500  0.437500      8.000000
  0.187500  0.187500  0.437500      8.000000
  0.250000  0.187500  0.437500      8.000000
  0.312500  0.187500  0.437500      8.000000
  0.375000  0.187500  0.437500      8.000000
  0.437500  0.187500  0.437500      8.000000
  0.500000  0.187500  0.437500      8.000000
 -0.437500  0.187500  0.437500      8.000000
 -0.375000  0.187500  0.437500      4.000000
  0.000000  0.250000  0.437500      4.000000
  0.062500  0.250000  0.437500      8.000000
  0.125000  0.250000  0.437500      8.000000
  0.187500  0.250000  0.437500      8.000000
  0.250000  0.250000  0.437500      8.000000
  0.312500  0.250000  0.437500      8.000000
  0.375000  0.250000  0.437500      8.000000
  0.437500  0.250000  0.437500      8.000000
  0.500000  0.250000  0.437500      4.000000
  0.000000  0.312500  0.437500      4.000000
  0.062500  0.312500  0.437500      8.000000
  0.125000  0.312500  0.437500      8.000000
  0.187500  0.312500  0.437500      8.000000
  0.250000  0.312500  0.437500      8.000000
  0.312500  0.312500  0.437500      8.000000
  0.375000  0.312500  0.437500      4.000000
  0.000000  0.375000  0.437500      4.000000
  0.062500  0.375000  0.437500      8.000000
  0.125000  0.375000  0.437500      8.000000
  0.187500  0.375000  0.437500      8.000000
  0.250000  0.375000  0.437500      4.000000
  0.000000  0.437500  0.437500      4.000000
  0.062500  0.437500  0.437500      8.000000
  0.125000  0.437500  0.437500      4.000000
  0.000000  0.500000  0.437500      2.000000
  0.000000  0.000000  0.500000      1.000000
  0.062500  0.000000  0.500000      4.000000
  0.125000  0.000000  0.500000      4.000000
  0.187500 -0.000000  0.500000      4.000000
  0.250000  0.000000  0.500000      4.000000
  0.312500 -0.000000  0.500000      4.000000
  0.375000 -0.000000  0.500000      4.000000
  0.437500 -0.000000  0.500000      4.000000
  0.500000  0.000000  0.500000      2.000000
  0.000000  0.062500  0.500000      2.000000
  0.062500  0.062500  0.500000      4.000000
  0.125000  0.062500  0.500000      4.000000
  0.187500  0.062500  0.500000      4.000000
  0.250000  0.062500  0.500000      4.000000
  0.312500  0.062500  0.500000      4.000000
  0.375000  0.062500  0.500000      4.000000
  0.437500  0.062500  0.500000      4.000000
  0.500000  0.062500  0.500000      4.000000
 -0.437500  0.062500  0.500000      4.000000
 -0.375000  0.062500  0.500000      4.000000
 -0.312500  0.062500  0.500000      4.000000
 -0.250000  0.062500  0.500000      4.000000
 -0.187500  0.062500  0.500000      4.000000
 -0.125000  0.062500  0.500000      2.000000
  0.000000  0.125000  0.500000      2.000000
  0.062500  0.125000  0.500000      4.000000
  0.125000  0.125000  0.500000      4.000000
  0.187500  0.125000  0.500000      4.000000
  0.250000  0.125000  0.500000      4.000000
  0.312500  0.125000  0.500000      4.000000
  0.375000  0.125000  0.500000      4.000000
  0.437500  0.125000  0.500000      4.000000
  0.500000  0.125000  0.500000      4.000000
 -0.437500  0.125000  0.500000      4.000000
 -0.375000  0.125000  0.500000      4.000000
 -0.312500  0.125000  0.500000      4.000000
 -0.250000  0.125000  0.500000      2.000000
  0.000000  0.187500  0.500000      2.000000
  0.062500  0.187500  0.500000      4.000000
  0.125000  0.187500  0.500000      4.000000
  0.187500  0.187500  0.500000      4.000000
  0.250000  0.187500  0.500000      4.000000
  0.312500  0.187500  0.500000      4.000000
  0.375000  0.187500  0.500000      4.000000
  0.437500  0.187500  0.500000      4.000000
  0.500000  0.187500  0.500000      4.000000
 -0.437500  0.187500  0.500000      4.000000
 -0.375000  0.187500  0.500000      2.000000
  0.000000  0.250000  0.500000      2.000000
  0.062500  0.250000  0.500000      4.000000
  0.125000  0.250000  0.500000      4.000000
  0.187500  0.250000  0.500000      4.000000
  0.250000  0.250000  0.500000      4.000000
  0.312500  0.250000  0.500000      4.000000
  0.375000  0.250000  0.500000      4.000000
  0.437500  0.250000  0.500000      4.000000
  0.500000  0.250000  0.500000      2.000000
  0.000000  0.312500  0.500000      2.000000
  0.062500  0.312500  0.500000      4.000000
  0.125000  0.312500  0.500000      4.000000
  0.187500  0.312500  0.500000      4.000000
  0.250000  0.312500  0.500000      4.000000
  0.312500  0.312500  0.500000      4.000000
  0.375000  0.312500  0.500000      2.000000
  0.000000  0.375000  0.500000      2.000000
  0.062500  0.375000  0.500000      4.000000
  0.125000  0.375000  0.500000      4.000000
  0.187500  0.375000  0.500000      4.000000
  0.250000  0.375000  0.500000      2.000000
  0.000000  0.437500  0.500000      2.000000
  0.062500  0.437500  0.500000      4.000000
  0.125000  0.437500  0.500000      2.000000
  0.000000  0.500000  0.500000      1.000000
 
 Following cartesian coordinates:
            Coordinates               Weight
  0.000000  0.000000  0.000000      1.000000
  0.019441  0.011898  0.000000      4.000000
  0.038881  0.023795  0.000000      4.000000
  0.058322  0.035693  0.000000      4.000000
  0.077763  0.047590  0.000000      4.000000
  0.097203  0.059488  0.000000      4.000000
  0.116644  0.071385  0.000000      4.000000
  0.136085  0.083283  0.000000      4.000000
  0.155525  0.095180  0.000000      2.000000
  0.000000  0.023795  0.000000      2.000000
  0.019441  0.035693  0.000000      4.000000
  0.038881  0.047590  0.000000      4.000000
  0.058322  0.059488  0.000000      4.000000
  0.077763  0.071385  0.000000      4.000000
  0.097203  0.083283  0.000000      4.000000
  0.116644  0.095180  0.000000      4.000000
  0.136085  0.107078  0.000000      4.000000
  0.155525  0.118975  0.000000      4.000000
 -0.136085 -0.059488  0.000000      4.000000
 -0.116644 -0.047590  0.000000      4.000000
 -0.097203 -0.035693  0.000000      4.000000
 -0.077763 -0.023795  0.000000      4.000000
 -0.058322 -0.011898  0.000000      4.000000
 -0.038881  0.000000  0.000000      2.000000
  0.000000  0.047590  0.000000      2.000000
  0.019441  0.059488  0.000000      4.000000
  0.038881  0.071385  0.000000      4.000000
  0.058322  0.083283  0.000000      4.000000
  0.077763  0.095180  0.000000      4.000000
  0.097203  0.107078  0.000000      4.000000
  0.116644  0.118975  0.000000      4.000000
  0.136085  0.130873  0.000000      4.000000
  0.155525  0.142770  0.000000      4.000000
 -0.136085 -0.035693  0.000000      4.000000
 -0.116644 -0.023795  0.000000      4.000000
 -0.097203 -0.011898  0.000000      4.000000
 -0.077763  0.000000  0.000000      2.000000
  0.000000  0.071385  0.000000      2.000000
  0.019441  0.083283  0.000000      4.000000
  0.038881  0.095180  0.000000      4.000000
  0.058322  0.107078  0.000000      4.000000
  0.077763  0.118975  0.000000      4.000000
  0.097203  0.130873  0.000000      4.000000
  0.116644  0.142770  0.000000      4.000000
  0.136085  0.154668  0.000000      4.000000
  0.155525  0.166565  0.000000      4.000000
 -0.136085 -0.011898  0.000000      4.000000
 -0.116644  0.000000  0.000000      2.000000
  0.000000  0.095180  0.000000      2.000000
  0.019441  0.107078  0.000000      4.000000
  0.038881  0.118975  0.000000      4.000000
  0.058322  0.130873  0.000000      4.000000
  0.077763  0.142770  0.000000      4.000000
  0.097203  0.154668  0.000000      4.000000
  0.116644  0.166565  0.000000      4.000000
  0.136085  0.178463  0.000000      4.000000
  0.155525  0.190360  0.000000      2.000000
  0.000000  0.118975  0.000000      2.000000
  0.019441  0.130873  0.000000      4.000000
  0.038881  0.142770  0.000000      4.000000
  0.058322  0.154668  0.000000      4.000000
  0.077763  0.166565  0.000000      4.000000
  0.097203  0.178463  0.000000      4.000000
  0.116644  0.190360  0.000000      2.000000
  0.000000  0.142770  0.000000      2.000000
  0.019441  0.154668  0.000000      4.000000
  0.038881  0.166565  0.000000      4.000000
  0.058322  0.178463  0.000000      4.000000
  0.077763  0.190360  0.000000      2.000000
  0.000000  0.166565  0.000000      2.000000
  0.019441  0.178463  0.000000      4.000000
  0.038881  0.190360  0.000000      2.000000
  0.000000  0.190360  0.000000      1.000000
  0.000000  0.000000  0.019376      2.000000
  0.019441  0.011898  0.019376      8.000000
  0.038881  0.023795  0.019376      8.000000
  0.058322  0.035693  0.019376      8.000000
  0.077763  0.047590  0.019376      8.000000
  0.097203  0.059488  0.019376      8.000000
  0.116644  0.071385  0.019376      8.000000
  0.136085  0.083283  0.019376      8.000000
  0.155525  0.095180  0.019376      4.000000
  0.000000  0.023795  0.019376      4.000000
  0.019441  0.035693  0.019376      8.000000
  0.038881  0.047590  0.019376      8.000000
  0.058322  0.059488  0.019376      8.000000
  0.077763  0.071385  0.019376      8.000000
  0.097203  0.083283  0.019376      8.000000
  0.116644  0.095180  0.019376      8.000000
  0.136085  0.107078  0.019376      8.000000
  0.155525  0.118975  0.019376      8.000000
 -0.136085 -0.059488  0.019376      8.000000
 -0.116644 -0.047590  0.019376      8.000000
 -0.097203 -0.035693  0.019376      8.000000
 -0.077763 -0.023795  0.019376      8.000000
 -0.058322 -0.011898  0.019376      8.000000
 -0.038881  0.000000  0.019376      4.000000
  0.000000  0.047590  0.019376      4.000000
  0.019441  0.059488  0.019376      8.000000
  0.038881  0.071385  0.019376      8.000000
  0.058322  0.083283  0.019376      8.000000
  0.077763  0.095180  0.019376      8.000000
  0.097203  0.107078  0.019376      8.000000
  0.116644  0.118975  0.019376      8.000000
  0.136085  0.130873  0.019376      8.000000
  0.155525  0.142770  0.019376      8.000000
 -0.136085 -0.035693  0.019376      8.000000
 -0.116644 -0.023795  0.019376      8.000000
 -0.097203 -0.011898  0.019376      8.000000
 -0.077763  0.000000  0.019376      4.000000
  0.000000  0.071385  0.019376      4.000000
  0.019441  0.083283  0.019376      8.000000
  0.038881  0.095180  0.019376      8.000000
  0.058322  0.107078  0.019376      8.000000
  0.077763  0.118975  0.019376      8.000000
  0.097203  0.130873  0.019376      8.000000
  0.116644  0.142770  0.019376      8.000000
  0.136085  0.154668  0.019376      8.000000
  0.155525  0.166565  0.019376      8.000000
 -0.136085 -0.011898  0.019376      8.000000
 -0.116644  0.000000  0.019376      4.000000
  0.000000  0.095180  0.019376      4.000000
  0.019441  0.107078  0.019376      8.000000
  0.038881  0.118975  0.019376      8.000000
  0.058322  0.130873  0.019376      8.000000
  0.077763  0.142770  0.019376      8.000000
  0.097203  0.154668  0.019376      8.000000
  0.116644  0.166565  0.019376      8.000000
  0.136085  0.178463  0.019376      8.000000
  0.155525  0.190360  0.019376      4.000000
  0.000000  0.118975  0.019376      4.000000
  0.019441  0.130873  0.019376      8.000000
  0.038881  0.142770  0.019376      8.000000
  0.058322  0.154668  0.019376      8.000000
  0.077763  0.166565  0.019376      8.000000
  0.097203  0.178463  0.019376      8.000000
  0.116644  0.190360  0.019376      4.000000
  0.000000  0.142770  0.019376      4.000000
  0.019441  0.154668  0.019376      8.000000
  0.038881  0.166565  0.019376      8.000000
  0.058322  0.178463  0.019376      8.000000
  0.077763  0.190360  0.019376      4.000000
  0.000000  0.166565  0.019376      4.000000
  0.019441  0.178463  0.019376      8.000000
  0.038881  0.190360  0.019376      4.000000
  0.000000  0.190360  0.019376      2.000000
  0.000000  0.000000  0.038751      2.000000
  0.019441  0.011898  0.038751      8.000000
  0.038881  0.023795  0.038751      8.000000
  0.058322  0.035693  0.038751      8.000000
  0.077763  0.047590  0.038751      8.000000
  0.097203  0.059488  0.038751      8.000000
  0.116644  0.071385  0.038751      8.000000
  0.136085  0.083283  0.038751      8.000000
  0.155525  0.095180  0.038751      4.000000
  0.000000  0.023795  0.038751      4.000000
  0.019441  0.035693  0.038751      8.000000
  0.038881  0.047590  0.038751      8.000000
  0.058322  0.059488  0.038751      8.000000
  0.077763  0.071385  0.038751      8.000000
  0.097203  0.083283  0.038751      8.000000
  0.116644  0.095180  0.038751      8.000000
  0.136085  0.107078  0.038751      8.000000
  0.155525  0.118975  0.038751      8.000000
 -0.136085 -0.059488  0.038751      8.000000
 -0.116644 -0.047590  0.038751      8.000000
 -0.097203 -0.035693  0.038751      8.000000
 -0.077763 -0.023795  0.038751      8.000000
 -0.058322 -0.011898  0.038751      8.000000
 -0.038881  0.000000  0.038751      4.000000
  0.000000  0.047590  0.038751      4.000000
  0.019441  0.059488  0.038751      8.000000
  0.038881  0.071385  0.038751      8.000000
  0.058322  0.083283  0.038751      8.000000
  0.077763  0.095180  0.038751      8.000000
  0.097203  0.107078  0.038751      8.000000
  0.116644  0.118975  0.038751      8.000000
  0.136085  0.130873  0.038751      8.000000
  0.155525  0.142770  0.038751      8.000000
 -0.136085 -0.035693  0.038751      8.000000
 -0.116644 -0.023795  0.038751      8.000000
 -0.097203 -0.011898  0.038751      8.000000
 -0.077763  0.000000  0.038751      4.000000
  0.000000  0.071385  0.038751      4.000000
  0.019441  0.083283  0.038751      8.000000
  0.038881  0.095180  0.038751      8.000000
  0.058322  0.107078  0.038751      8.000000
  0.077763  0.118975  0.038751      8.000000
  0.097203  0.130873  0.038751      8.000000
  0.116644  0.142770  0.038751      8.000000
  0.136085  0.154668  0.038751      8.000000
  0.155525  0.166565  0.038751      8.000000
 -0.136085 -0.011898  0.038751      8.000000
 -0.116644  0.000000  0.038751      4.000000
  0.000000  0.095180  0.038751      4.000000
  0.019441  0.107078  0.038751      8.000000
  0.038881  0.118975  0.038751      8.000000
  0.058322  0.130873  0.038751      8.000000
  0.077763  0.142770  0.038751      8.000000
  0.097203  0.154668  0.038751      8.000000
  0.116644  0.166565  0.038751      8.000000
  0.136085  0.178463  0.038751      8.000000
  0.155525  0.190360  0.038751      4.000000
  0.000000  0.118975  0.038751      4.000000
  0.019441  0.130873  0.038751      8.000000
  0.038881  0.142770  0.038751      8.000000
  0.058322  0.154668  0.038751      8.000000
  0.077763  0.166565  0.038751      8.000000
  0.097203  0.178463  0.038751      8.000000
  0.116644  0.190360  0.038751      4.000000
  0.000000  0.142770  0.038751      4.000000
  0.019441  0.154668  0.038751      8.000000
  0.038881  0.166565  0.038751      8.000000
  0.058322  0.178463  0.038751      8.000000
  0.077763  0.190360  0.038751      4.000000
  0.000000  0.166565  0.038751      4.000000
  0.019441  0.178463  0.038751      8.000000
  0.038881  0.190360  0.038751      4.000000
  0.000000  0.190360  0.038751      2.000000
  0.000000  0.000000  0.058127      2.000000
  0.019441  0.011898  0.058127      8.000000
  0.038881  0.023795  0.058127      8.000000
  0.058322  0.035693  0.058127      8.000000
  0.077763  0.047590  0.058127      8.000000
  0.097203  0.059488  0.058127      8.000000
  0.116644  0.071385  0.058127      8.000000
  0.136085  0.083283  0.058127      8.000000
  0.155525  0.095180  0.058127      4.000000
  0.000000  0.023795  0.058127      4.000000
  0.019441  0.035693  0.058127      8.000000
  0.038881  0.047590  0.058127      8.000000
  0.058322  0.059488  0.058127      8.000000
  0.077763  0.071385  0.058127      8.000000
  0.097203  0.083283  0.058127      8.000000
  0.116644  0.095180  0.058127      8.000000
  0.136085  0.107078  0.058127      8.000000
  0.155525  0.118975  0.058127      8.000000
 -0.136085 -0.059488  0.058127      8.000000
 -0.116644 -0.047590  0.058127      8.000000
 -0.097203 -0.035693  0.058127      8.000000
 -0.077763 -0.023795  0.058127      8.000000
 -0.058322 -0.011898  0.058127      8.000000
 -0.038881  0.000000  0.058127      4.000000
  0.000000  0.047590  0.058127      4.000000
  0.019441  0.059488  0.058127      8.000000
  0.038881  0.071385  0.058127      8.000000
  0.058322  0.083283  0.058127      8.000000
  0.077763  0.095180  0.058127      8.000000
  0.097203  0.107078  0.058127      8.000000
  0.116644  0.118975  0.058127      8.000000
  0.136085  0.130873  0.058127      8.000000
  0.155525  0.142770  0.058127      8.000000
 -0.136085 -0.035693  0.058127      8.000000
 -0.116644 -0.023795  0.058127      8.000000
 -0.097203 -0.011898  0.058127      8.000000
 -0.077763  0.000000  0.058127      4.000000
  0.000000  0.071385  0.058127      4.000000
  0.019441  0.083283  0.058127      8.000000
  0.038881  0.095180  0.058127      8.000000
  0.058322  0.107078  0.058127      8.000000
  0.077763  0.118975  0.058127      8.000000
  0.097203  0.130873  0.058127      8.000000
  0.116644  0.142770  0.058127      8.000000
  0.136085  0.154668  0.058127      8.000000
  0.155525  0.166565  0.058127      8.000000
 -0.136085 -0.011898  0.058127      8.000000
 -0.116644  0.000000  0.058127      4.000000
  0.000000  0.095180  0.058127      4.000000
  0.019441  0.107078  0.058127      8.000000
  0.038881  0.118975  0.058127      8.000000
  0.058322  0.130873  0.058127      8.000000
  0.077763  0.142770  0.058127      8.000000
  0.097203  0.154668  0.058127      8.000000
  0.116644  0.166565  0.058127      8.000000
  0.136085  0.178463  0.058127      8.000000
  0.155525  0.190360  0.058127      4.000000
  0.000000  0.118975  0.058127      4.000000
  0.019441  0.130873  0.058127      8.000000
  0.038881  0.142770  0.058127      8.000000
  0.058322  0.154668  0.058127      8.000000
  0.077763  0.166565  0.058127      8.000000
  0.097203  0.178463  0.058127      8.000000
  0.116644  0.190360  0.058127      4.000000
  0.000000  0.142770  0.058127      4.000000
  0.019441  0.154668  0.058127      8.000000
  0.038881  0.166565  0.058127      8.000000
  0.058322  0.178463  0.058127      8.000000
  0.077763  0.190360  0.058127      4.000000
  0.000000  0.166565  0.058127      4.000000
  0.019441  0.178463  0.058127      8.000000
  0.038881  0.190360  0.058127      4.000000
  0.000000  0.190360  0.058127      2.000000
  0.000000  0.000000  0.077503      2.000000
  0.019441  0.011898  0.077503      8.000000
  0.038881  0.023795  0.077503      8.000000
  0.058322  0.035693  0.077503      8.000000
  0.077763  0.047590  0.077503      8.000000
  0.097203  0.059488  0.077503      8.000000
  0.116644  0.071385  0.077503      8.000000
  0.136085  0.083283  0.077503      8.000000
  0.155525  0.095180  0.077503      4.000000
  0.000000  0.023795  0.077503      4.000000
  0.019441  0.035693  0.077503      8.000000
  0.038881  0.047590  0.077503      8.000000
  0.058322  0.059488  0.077503      8.000000
  0.077763  0.071385  0.077503      8.000000
  0.097203  0.083283  0.077503      8.000000
  0.116644  0.095180  0.077503      8.000000
  0.136085  0.107078  0.077503      8.000000
  0.155525  0.118975  0.077503      8.000000
 -0.136085 -0.059488  0.077503      8.000000
 -0.116644 -0.047590  0.077503      8.000000
 -0.097203 -0.035693  0.077503      8.000000
 -0.077763 -0.023795  0.077503      8.000000
 -0.058322 -0.011898  0.077503      8.000000
 -0.038881  0.000000  0.077503      4.000000
  0.000000  0.047590  0.077503      4.000000
  0.019441  0.059488  0.077503      8.000000
  0.038881  0.071385  0.077503      8.000000
  0.058322  0.083283  0.077503      8.000000
  0.077763  0.095180  0.077503      8.000000
  0.097203  0.107078  0.077503      8.000000
  0.116644  0.118975  0.077503      8.000000
  0.136085  0.130873  0.077503      8.000000
  0.155525  0.142770  0.077503      8.000000
 -0.136085 -0.035693  0.077503      8.000000
 -0.116644 -0.023795  0.077503      8.000000
 -0.097203 -0.011898  0.077503      8.000000
 -0.077763  0.000000  0.077503      4.000000
  0.000000  0.071385  0.077503      4.000000
  0.019441  0.083283  0.077503      8.000000
  0.038881  0.095180  0.077503      8.000000
  0.058322  0.107078  0.077503      8.000000
  0.077763  0.118975  0.077503      8.000000
  0.097203  0.130873  0.077503      8.000000
  0.116644  0.142770  0.077503      8.000000
  0.136085  0.154668  0.077503      8.000000
  0.155525  0.166565  0.077503      8.000000
 -0.136085 -0.011898  0.077503      8.000000
 -0.116644  0.000000  0.077503      4.000000
  0.000000  0.095180  0.077503      4.000000
  0.019441  0.107078  0.077503      8.000000
  0.038881  0.118975  0.077503      8.000000
  0.058322  0.130873  0.077503      8.000000
  0.077763  0.142770  0.077503      8.000000
  0.097203  0.154668  0.077503      8.000000
  0.116644  0.166565  0.077503      8.000000
  0.136085  0.178463  0.077503      8.000000
  0.155525  0.190360  0.077503      4.000000
  0.000000  0.118975  0.077503      4.000000
  0.019441  0.130873  0.077503      8.000000
  0.038881  0.142770  0.077503      8.000000
  0.058322  0.154668  0.077503      8.000000
  0.077763  0.166565  0.077503      8.000000
  0.097203  0.178463  0.077503      8.000000
  0.116644  0.190360  0.077503      4.000000
  0.000000  0.142770  0.077503      4.000000
  0.019441  0.154668  0.077503      8.000000
  0.038881  0.166565  0.077503      8.000000
  0.058322  0.178463  0.077503      8.000000
  0.077763  0.190360  0.077503      4.000000
  0.000000  0.166565  0.077503      4.000000
  0.019441  0.178463  0.077503      8.000000
  0.038881  0.190360  0.077503      4.000000
  0.000000  0.190360  0.077503      2.000000
  0.000000  0.000000  0.096879      2.000000
  0.019441  0.011898  0.096879      8.000000
  0.038881  0.023795  0.096879      8.000000
  0.058322  0.035693  0.096879      8.000000
  0.077763  0.047590  0.096879      8.000000
  0.097203  0.059488  0.096879      8.000000
  0.116644  0.071385  0.096879      8.000000
  0.136085  0.083283  0.096879      8.000000
  0.155525  0.095180  0.096879      4.000000
  0.000000  0.023795  0.096879      4.000000
  0.019441  0.035693  0.096879      8.000000
  0.038881  0.047590  0.096879      8.000000
  0.058322  0.059488  0.096879      8.000000
  0.077763  0.071385  0.096879      8.000000
  0.097203  0.083283  0.096879      8.000000
  0.116644  0.095180  0.096879      8.000000
  0.136085  0.107078  0.096879      8.000000
  0.155525  0.118975  0.096879      8.000000
 -0.136085 -0.059488  0.096879      8.000000
 -0.116644 -0.047590  0.096879      8.000000
 -0.097203 -0.035693  0.096879      8.000000
 -0.077763 -0.023795  0.096879      8.000000
 -0.058322 -0.011898  0.096879      8.000000
 -0.038881  0.000000  0.096879      4.000000
  0.000000  0.047590  0.096879      4.000000
  0.019441  0.059488  0.096879      8.000000
  0.038881  0.071385  0.096879      8.000000
  0.058322  0.083283  0.096879      8.000000
  0.077763  0.095180  0.096879      8.000000
  0.097203  0.107078  0.096879      8.000000
  0.116644  0.118975  0.096879      8.000000
  0.136085  0.130873  0.096879      8.000000
  0.155525  0.142770  0.096879      8.000000
 -0.136085 -0.035693  0.096879      8.000000
 -0.116644 -0.023795  0.096879      8.000000
 -0.097203 -0.011898  0.096879      8.000000
 -0.077763  0.000000  0.096879      4.000000
  0.000000  0.071385  0.096879      4.000000
  0.019441  0.083283  0.096879      8.000000
  0.038881  0.095180  0.096879      8.000000
  0.058322  0.107078  0.096879      8.000000
  0.077763  0.118975  0.096879      8.000000
  0.097203  0.130873  0.096879      8.000000
  0.116644  0.142770  0.096879      8.000000
  0.136085  0.154668  0.096879      8.000000
  0.155525  0.166565  0.096879      8.000000
 -0.136085 -0.011898  0.096879      8.000000
 -0.116644  0.000000  0.096879      4.000000
  0.000000  0.095180  0.096879      4.000000
  0.019441  0.107078  0.096879      8.000000
  0.038881  0.118975  0.096879      8.000000
  0.058322  0.130873  0.096879      8.000000
  0.077763  0.142770  0.096879      8.000000
  0.097203  0.154668  0.096879      8.000000
  0.116644  0.166565  0.096879      8.000000
  0.136085  0.178463  0.096879      8.000000
  0.155525  0.190360  0.096879      4.000000
  0.000000  0.118975  0.096879      4.000000
  0.019441  0.130873  0.096879      8.000000
  0.038881  0.142770  0.096879      8.000000
  0.058322  0.154668  0.096879      8.000000
  0.077763  0.166565  0.096879      8.000000
  0.097203  0.178463  0.096879      8.000000
  0.116644  0.190360  0.096879      4.000000
  0.000000  0.142770  0.096879      4.000000
  0.019441  0.154668  0.096879      8.000000
  0.038881  0.166565  0.096879      8.000000
  0.058322  0.178463  0.096879      8.000000
  0.077763  0.190360  0.096879      4.000000
  0.000000  0.166565  0.096879      4.000000
  0.019441  0.178463  0.096879      8.000000
  0.038881  0.190360  0.096879      4.000000
  0.000000  0.190360  0.096879      2.000000
  0.000000  0.000000  0.116254      2.000000
  0.019441  0.011898  0.116254      8.000000
  0.038881  0.023795  0.116254      8.000000
  0.058322  0.035693  0.116254      8.000000
  0.077763  0.047590  0.116254      8.000000
  0.097203  0.059488  0.116254      8.000000
  0.116644  0.071385  0.116254      8.000000
  0.136085  0.083283  0.116254      8.000000
  0.155525  0.095180  0.116254      4.000000
  0.000000  0.023795  0.116254      4.000000
  0.019441  0.035693  0.116254      8.000000
  0.038881  0.047590  0.116254      8.000000
  0.058322  0.059488  0.116254      8.000000
  0.077763  0.071385  0.116254      8.000000
  0.097203  0.083283  0.116254      8.000000
  0.116644  0.095180  0.116254      8.000000
  0.136085  0.107078  0.116254      8.000000
  0.155525  0.118975  0.116254      8.000000
 -0.136085 -0.059488  0.116254      8.000000
 -0.116644 -0.047590  0.116254      8.000000
 -0.097203 -0.035693  0.116254      8.000000
 -0.077763 -0.023795  0.116254      8.000000
 -0.058322 -0.011898  0.116254      8.000000
 -0.038881  0.000000  0.116254      4.000000
  0.000000  0.047590  0.116254      4.000000
  0.019441  0.059488  0.116254      8.000000
  0.038881  0.071385  0.116254      8.000000
  0.058322  0.083283  0.116254      8.000000
  0.077763  0.095180  0.116254      8.000000
  0.097203  0.107078  0.116254      8.000000
  0.116644  0.118975  0.116254      8.000000
  0.136085  0.130873  0.116254      8.000000
  0.155525  0.142770  0.116254      8.000000
 -0.136085 -0.035693  0.116254      8.000000
 -0.116644 -0.023795  0.116254      8.000000
 -0.097203 -0.011898  0.116254      8.000000
 -0.077763  0.000000  0.116254      4.000000
  0.000000  0.071385  0.116254      4.000000
  0.019441  0.083283  0.116254      8.000000
  0.038881  0.095180  0.116254      8.000000
  0.058322  0.107078  0.116254      8.000000
  0.077763  0.118975  0.116254      8.000000
  0.097203  0.130873  0.116254      8.000000
  0.116644  0.142770  0.116254      8.000000
  0.136085  0.154668  0.116254      8.000000
  0.155525  0.166565  0.116254      8.000000
 -0.136085 -0.011898  0.116254      8.000000
 -0.116644  0.000000  0.116254      4.000000
  0.000000  0.095180  0.116254      4.000000
  0.019441  0.107078  0.116254      8.000000
  0.038881  0.118975  0.116254      8.000000
  0.058322  0.130873  0.116254      8.000000
  0.077763  0.142770  0.116254      8.000000
  0.097203  0.154668  0.116254      8.000000
  0.116644  0.166565  0.116254      8.000000
  0.136085  0.178463  0.116254      8.000000
  0.155525  0.190360  0.116254      4.000000
  0.000000  0.118975  0.116254      4.000000
  0.019441  0.130873  0.116254      8.000000
  0.038881  0.142770  0.116254      8.000000
  0.058322  0.154668  0.116254      8.000000
  0.077763  0.166565  0.116254      8.000000
  0.097203  0.178463  0.116254      8.000000
  0.116644  0.190360  0.116254      4.000000
  0.000000  0.142770  0.116254      4.000000
  0.019441  0.154668  0.116254      8.000000
  0.038881  0.166565  0.116254      8.000000
  0.058322  0.178463  0.116254      8.000000
  0.077763  0.190360  0.116254      4.000000
  0.000000  0.166565  0.116254      4.000000
  0.019441  0.178463  0.116254      8.000000
  0.038881  0.190360  0.116254      4.000000
  0.000000  0.190360  0.116254      2.000000
  0.000000  0.000000  0.135630      2.000000
  0.019441  0.011898  0.135630      8.000000
  0.038881  0.023795  0.135630      8.000000
  0.058322  0.035693  0.135630      8.000000
  0.077763  0.047590  0.135630      8.000000
  0.097203  0.059488  0.135630      8.000000
  0.116644  0.071385  0.135630      8.000000
  0.136085  0.083283  0.135630      8.000000
  0.155525  0.095180  0.135630      4.000000
  0.000000  0.023795  0.135630      4.000000
  0.019441  0.035693  0.135630      8.000000
  0.038881  0.047590  0.135630      8.000000
  0.058322  0.059488  0.135630      8.000000
  0.077763  0.071385  0.135630      8.000000
  0.097203  0.083283  0.135630      8.000000
  0.116644  0.095180  0.135630      8.000000
  0.136085  0.107078  0.135630      8.000000
  0.155525  0.118975  0.135630      8.000000
 -0.136085 -0.059488  0.135630      8.000000
 -0.116644 -0.047590  0.135630      8.000000
 -0.097203 -0.035693  0.135630      8.000000
 -0.077763 -0.023795  0.135630      8.000000
 -0.058322 -0.011898  0.135630      8.000000
 -0.038881  0.000000  0.135630      4.000000
  0.000000  0.047590  0.135630      4.000000
  0.019441  0.059488  0.135630      8.000000
  0.038881  0.071385  0.135630      8.000000
  0.058322  0.083283  0.135630      8.000000
  0.077763  0.095180  0.135630      8.000000
  0.097203  0.107078  0.135630      8.000000
  0.116644  0.118975  0.135630      8.000000
  0.136085  0.130873  0.135630      8.000000
  0.155525  0.142770  0.135630      8.000000
 -0.136085 -0.035693  0.135630      8.000000
 -0.116644 -0.023795  0.135630      8.000000
 -0.097203 -0.011898  0.135630      8.000000
 -0.077763  0.000000  0.135630      4.000000
  0.000000  0.071385  0.135630      4.000000
  0.019441  0.083283  0.135630      8.000000
  0.038881  0.095180  0.135630      8.000000
  0.058322  0.107078  0.135630      8.000000
  0.077763  0.118975  0.135630      8.000000
  0.097203  0.130873  0.135630      8.000000
  0.116644  0.142770  0.135630      8.000000
  0.136085  0.154668  0.135630      8.000000
  0.155525  0.166565  0.135630      8.000000
 -0.136085 -0.011898  0.135630      8.000000
 -0.116644  0.000000  0.135630      4.000000
  0.000000  0.095180  0.135630      4.000000
  0.019441  0.107078  0.135630      8.000000
  0.038881  0.118975  0.135630      8.000000
  0.058322  0.130873  0.135630      8.000000
  0.077763  0.142770  0.135630      8.000000
  0.097203  0.154668  0.135630      8.000000
  0.116644  0.166565  0.135630      8.000000
  0.136085  0.178463  0.135630      8.000000
  0.155525  0.190360  0.135630      4.000000
  0.000000  0.118975  0.135630      4.000000
  0.019441  0.130873  0.135630      8.000000
  0.038881  0.142770  0.135630      8.000000
  0.058322  0.154668  0.135630      8.000000
  0.077763  0.166565  0.135630      8.000000
  0.097203  0.178463  0.135630      8.000000
  0.116644  0.190360  0.135630      4.000000
  0.000000  0.142770  0.135630      4.000000
  0.019441  0.154668  0.135630      8.000000
  0.038881  0.166565  0.135630      8.000000
  0.058322  0.178463  0.135630      8.000000
  0.077763  0.190360  0.135630      4.000000
  0.000000  0.166565  0.135630      4.000000
  0.019441  0.178463  0.135630      8.000000
  0.038881  0.190360  0.135630      4.000000
  0.000000  0.190360  0.135630      2.000000
  0.000000  0.000000  0.155006      1.000000
  0.019441  0.011898  0.155006      4.000000
  0.038881  0.023795  0.155006      4.000000
  0.058322  0.035693  0.155006      4.000000
  0.077763  0.047590  0.155006      4.000000
  0.097203  0.059488  0.155006      4.000000
  0.116644  0.071385  0.155006      4.000000
  0.136085  0.083283  0.155006      4.000000
  0.155525  0.095180  0.155006      2.000000
  0.000000  0.023795  0.155006      2.000000
  0.019441  0.035693  0.155006      4.000000
  0.038881  0.047590  0.155006      4.000000
  0.058322  0.059488  0.155006      4.000000
  0.077763  0.071385  0.155006      4.000000
  0.097203  0.083283  0.155006      4.000000
  0.116644  0.095180  0.155006      4.000000
  0.136085  0.107078  0.155006      4.000000
  0.155525  0.118975  0.155006      4.000000
 -0.136085 -0.059488  0.155006      4.000000
 -0.116644 -0.047590  0.155006      4.000000
 -0.097203 -0.035693  0.155006      4.000000
 -0.077763 -0.023795  0.155006      4.000000
 -0.058322 -0.011898  0.155006      4.000000
 -0.038881  0.000000  0.155006      2.000000
  0.000000  0.047590  0.155006      2.000000
  0.019441  0.059488  0.155006      4.000000
  0.038881  0.071385  0.155006      4.000000
  0.058322  0.083283  0.155006      4.000000
  0.077763  0.095180  0.155006      4.000000
  0.097203  0.107078  0.155006      4.000000
  0.116644  0.118975  0.155006      4.000000
  0.136085  0.130873  0.155006      4.000000
  0.155525  0.142770  0.155006      4.000000
 -0.136085 -0.035693  0.155006      4.000000
 -0.116644 -0.023795  0.155006      4.000000
 -0.097203 -0.011898  0.155006      4.000000
 -0.077763  0.000000  0.155006      2.000000
  0.000000  0.071385  0.155006      2.000000
  0.019441  0.083283  0.155006      4.000000
  0.038881  0.095180  0.155006      4.000000
  0.058322  0.107078  0.155006      4.000000
  0.077763  0.118975  0.155006      4.000000
  0.097203  0.130873  0.155006      4.000000
  0.116644  0.142770  0.155006      4.000000
  0.136085  0.154668  0.155006      4.000000
  0.155525  0.166565  0.155006      4.000000
 -0.136085 -0.011898  0.155006      4.000000
 -0.116644  0.000000  0.155006      2.000000
  0.000000  0.095180  0.155006      2.000000
  0.019441  0.107078  0.155006      4.000000
  0.038881  0.118975  0.155006      4.000000
  0.058322  0.130873  0.155006      4.000000
  0.077763  0.142770  0.155006      4.000000
  0.097203  0.154668  0.155006      4.000000
  0.116644  0.166565  0.155006      4.000000
  0.136085  0.178463  0.155006      4.000000
  0.155525  0.190360  0.155006      2.000000
  0.000000  0.118975  0.155006      2.000000
  0.019441  0.130873  0.155006      4.000000
  0.038881  0.142770  0.155006      4.000000
  0.058322  0.154668  0.155006      4.000000
  0.077763  0.166565  0.155006      4.000000
  0.097203  0.178463  0.155006      4.000000
  0.116644  0.190360  0.155006      2.000000
  0.000000  0.142770  0.155006      2.000000
  0.019441  0.154668  0.155006      4.000000
  0.038881  0.166565  0.155006      4.000000
  0.058322  0.178463  0.155006      4.000000
  0.077763  0.190360  0.155006      2.000000
  0.000000  0.166565  0.155006      2.000000
  0.019441  0.178463  0.155006      4.000000
  0.038881  0.190360  0.155006      2.000000
  0.000000  0.190360  0.155006      1.000000
 


--------------------------------------------------------------------------------------------------------




 Dimension of arrays:
   k-points           NKPTS =    657   k-points in BZ     NKDIM =    657   number of bands    NBANDS=     12
   number of dos      NEDOS =    301   number of ions     NIONS =      3
   non local maximal  LDIM  =      5   non local SUM 2l+1 LMDIM =     15
   total plane-waves  NPLWV =  21952
   max r-space proj   IRMAX =      1   max aug-charges    IRDMAX=  55853
   dimension x,y,z NGX =    28 NGY =   28 NGZ =   28
   dimension x,y,z NGXF=    56 NGYF=   56 NGZF=   56
   support grid    NGXF=    56 NGYF=   56 NGZF=   56
   ions per type =               1   2
   NGX,Y,Z   is equivalent  to a cutoff of  14.48, 15.12, 14.43 a.u.
   NGXF,Y,Z  is equivalent  to a cutoff of  28.96, 30.23, 28.86 a.u.

 SYSTEM =  unknown system                          
 POSCAR =  Ti  B                                   

 Startparameter for this run:
   NWRITE =      2    write-flag & timer
   PREC   = accura    normal or accurate (medium, high low for compatibility)
   ISTART =      0    job   : 0-new  1-cont  2-samecut
   ICHARG =      2    charge: 1-file 2-atom 10-const
   ISPIN  =      1    spin polarized calculation?
   LNONCOLLINEAR =      F non collinear calculations
   LSORBIT =      F    spin-orbit coupling
   INIWAV =      1    electr: 0-lowe 1-rand  2-diag
   LASPH  =      F    aspherical Exc in radial PAW
   METAGGA=      F    non-selfconsistent MetaGGA calc.

 Electronic Relaxation 1
   ENCUT  =  600.0 eV  44.10 Ry    6.64 a.u.   6.42  6.15  6.44*2*pi/ulx,y,z
   ENINI  =  600.0     initial cutoff
   ENAUG  =  535.5 eV  augmentation charge cutoff
   NELM   =     60;   NELMIN=  2; NELMDL=-12     # of ELM steps 
   EDIFF  = 0.1E-05   stopping-criterion for ELM
   LREAL  =      F    real-space projection
   NLSPLINE    = F    spline interpolate recip. space projectors
   LCOMPAT=      F    compatible to vasp.4.4
   GGA_COMPAT  = T    GGA compatible to vasp.4.4-vasp.4.6
   LMAXPAW     = -100 max onsite density
   LMAXMIX     =    2 max onsite mixed and CHGCAR
   VOSKOWN=      0    Vosko Wilk Nusair interpolation
   ROPT   =    0.00000   0.00000
 Ionic relaxation
   EDIFFG = 0.1E-04   stopping-criterion for IOM
   NSW    =     50    number of steps for IOM
   NBLOCK =      1;   KBLOCK =     50    inner block; outer block 
   IBRION =      1    ionic relax: 0-MD 1-quasi-New 2-CG
   NFREE  =      0    steps in history (QN), initial steepest desc. (CG)
   ISIF   =      2    stress and relaxation
   IWAVPR =     11    prediction:  0-non 1-charg 2-wave 3-comb
   ISYM   =      2    0-nonsym 1-usesym 2-fastsym
   LCORR  =      T    Harris-Foulkes like correction to forces

   POTIM  = 0.5000    time-step for ionic-motion
   TEIN   =    0.0    initial temperature
   TEBEG  =    0.0;   TEEND  =   0.0 temperature during run
   SMASS  =  -3.00    Nose mass-parameter (am)
   estimated Nose-frequenzy (Omega)   =  0.10E-29 period in steps =****** mass=  -0.236E-27a.u.
   SCALEE = 1.0000    scale energy and forces
   NPACO  =    256;   APACO  = 16.0  distance and # of slots for P.C.
   PSTRESS=    0.0 pullay stress

  Mass of Ions in am
   POMASS =  47.88 10.81
  Ionic Valenz
   ZVAL   =   4.00  3.00
  Atomic Wigner-Seitz radii
   RWIGS  =  -1.00 -1.00
  virtual crystal weights 
   VCA    =   1.00  1.00
   NELECT =      10.0000    total number of electrons
   NUPDOWN=      -1.0000    fix difference up-down

 DOS related values:
   EMIN   =  10.00;   EMAX   =-10.00  energy-range for DOS
   EFERMI =   0.00
   ISMEAR =     0;   SIGMA  =   0.05  broadening in eV -4-tet -1-fermi 0-gaus

 Electronic relaxation 2 (details)
   IALGO  =     48    algorithm
   LDIAG  =      T    sub-space diagonalisation (order eigenvalues)
   LSUBROT=      F    optimize rotation matrix (better conditioning)
   TURBO    =      0    0=normal 1=particle mesh
   IRESTART =      0    0=no restart 2=restart with 2 vectors
   NREBOOT  =      0    no. of reboots
   NMIN     =      0    reboot dimension
   EREF     =   0.00    reference energy to select bands
   IMIX   =      4    mixing-type and parameters
     AMIX     =   0.40;   BMIX     =  1.00
     AMIX_MAG =   1.60;   BMIX_MAG =  1.00
     AMIN     =   0.10
     WC   =   100.;   INIMIX=   1;  MIXPRE=   1;  MAXMIX= -45

 Intra band minimization:
   WEIMIN = 0.0010     energy-eigenvalue tresh-hold
   EBREAK =  0.21E-07  absolut break condition
   DEPER  =   0.30     relativ break condition  

   TIME   =   0.40     timestep for ELM

  volume/ion in A,a.u.               =       9.08        61.27
  Fermi-wavevector in a.u.,A,eV,Ry     =   1.172231  2.215195 18.696100  1.374125
  Thomas-Fermi vector in A             =   2.308662
 
 Write flags
   LWAVE        =      F    write WAVECAR
   LDOWNSAMPLE  =      F    k-point downsampling of WAVECAR
   LCHARG       =      F    write CHGCAR
   LVTOT        =      F    write LOCPOT, total local potential
   LVHAR        =      F    write LOCPOT, Hartree potential only
   LELF         =      F    write electronic localiz. function (ELF)
   LORBIT       =      0    0 simple, 1 ext, 2 COOP (PROOUT), +10 PAW based schemes


 Dipole corrections
   LMONO  =      F    monopole corrections only (constant potential shift)
   LDIPOL =      F    correct potential (dipole corrections)
   IDIPOL =      0    1-x, 2-y, 3-z, 4-all directions 
   EPSILON=  1.0000000 bulk dielectric constant

 Exchange correlation treatment:
   GGA     =    --    GGA type
   LEXCH   =     8    internal setting for exchange type
   VOSKOWN=      0    Vosko Wilk Nusair interpolation
   LHFCALC =     F    Hartree Fock is set to
   LHFONE  =     F    Hartree Fock one center treatment
   AEXX    =    0.0000 exact exchange contribution

 Linear response parameters
   LEPSILON=     F    determine dielectric tensor
   LRPA    =     F    only Hartree local field effects (RPA)
   LNABLA  =     F    use nabla operator in PAW spheres
   LVEL    =     F    velocity operator in full k-point grid
   LINTERFAST=   F  fast interpolation
   KINTER  =     0    interpolate to denser k-point grid
   CSHIFT  =0.1000    complex shift for real part using Kramers Kronig
   OMEGAMAX=  -1.0    maximum frequency
   DEG_THRESHOLD= 0.2000000E-02 threshold for treating states as degnerate
   RTIME   =   -0.100 relaxation time in fs
  (WPLASMAI=    0.000 imaginary part of plasma frequency in eV, 0.658/RTIME)
   DFIELD  = 0.0000000 0.0000000 0.0000000 field for delta impulse in time
 
 Orbital magnetization related:
   ORBITALMAG=     F  switch on orbital magnetization
   LCHIMAG   =     F  perturbation theory with respect to B field
   DQ        =  0.001000  dq finite difference perturbation B field
   LLRAUG    =     F  two centre corrections for induced B field



--------------------------------------------------------------------------------------------------------


 quasi-Newton-method for relaxation of ions
 charge density and potential will be updated during run
 non-spin polarized calculation
 RMM-DIIS sequential band-by-band
 perform sub-space diagonalisation
    before iterative eigenvector-optimisation
 modified Broyden-mixing scheme, WC =      100.0
 initial mixing is a Kerker type mixing with AMIX =  0.4000 and BMIX =      1.0000
 Hartree-type preconditioning will be used
 using additional bands            7
 reciprocal scheme for non local part
 use partial core corrections
 calculate Harris-corrections to forces 
   (improved forces if not selfconsistent)
 use gradient corrections 
 use of overlap-Matrix (Vanderbilt PP)
 Gauss-broadening in eV      SIGMA  =   0.05


--------------------------------------------------------------------------------------------------------


  energy-cutoff  :      600.00
  volume of cell :       27.24
      direct lattice vectors                 reciprocal lattice vectors
     3.214911346  0.000000000  0.000000000     0.311050568  0.190360237  0.000000000
    -1.607455673  2.626598959  0.000000000     0.000000000  0.380720474  0.000000000
     0.000000000  0.000000000  3.225689512     0.000000000  0.000000000  0.310011238

  length of vectors
     3.214911346  3.079437583  3.225689512     0.364677221  0.380720474  0.310011238


 
 k-points in units of 2pi/SCALE and weight: A                                       
   0.00000000  0.00000000  0.00000000       0.000
[...]
     11      13.1114      0.00000
     12      14.4498      0.00000

 k-point   637 :       0.2500    0.2500    0.5000
  band No.  band energies     occupation 
      1      -3.4891      2.00000
      2      -1.0063      2.00000
      3       0.8697      2.00000
      4       2.0431      2.00000
      5       3.2493      2.00000
      6       8.2136      0.00000
      7       8.7422      0.00000
      8       9.1200      0.00000
      9      10.2269      0.00000
     10      11.3432      0.00000
     11      13.6267      0.00000
     12      13.9845      0.00000

 k-point   638 :       0.3125    0.2500    0.5000
  band No.  band energies     occupation 
      1      -3.0996      2.00000
      2      -1.5757      2.00000
      3       0.7215      2.00000
      4       2.5117      2.00000
      5       2.9949      2.00000
      6       8.2455      0.00000
      7       9.1311      0.00000
      8       9.3755      0.00000
      9      10.1319      0.00000
     10      10.7474      0.00000
     11      13.1176      0.00000
     12      15.3957      0.00000

 k-point   639 :       0.3750    0.2500    0.5000
  band No.  band energies     occupation 
      1      -2.9585      2.00000
      2      -1.7792      2.00000
      3       0.6872      2.00000
      4       2.5614      2.00000
      5       3.0268      2.00000
      6       8.2394      0.00000
      7       9.2772      0.00000
      8       9.5869      0.00000
      9       9.9523      0.00000
     10      10.5157      0.00000
     11      12.9161      0.00000
     12      16.1881      0.00000

 k-point   640 :       0.4375    0.2500    0.5000
  band No.  band energies     occupation 
      1      -3.2588      2.00000
      2      -1.4255      2.00000
      3       0.7748      2.00000
      4       2.2238      2.00000
      5       3.2598      2.00000
      6       8.2215      0.00000
      7       9.0150      0.00000
      8       9.6886      0.00000
      9       9.7822      0.00000
     10      10.8366      0.00000
     11      13.0387      0.00000
     12      15.2358      0.00000

 k-point   641 :       0.5000    0.2500    0.5000
  band No.  band energies     occupation 
      1      -3.6719      2.00000
      2      -0.8632      2.00000
      3       0.9939      2.00000
      4       1.7603      2.00000
      5       3.4782      2.00000
      6       8.1918      0.00000
      7       8.6238      0.00000
      8       9.4785      0.00000
      9       9.8175      0.00000
     10      11.3461      0.00000
     11      13.5272      0.00000
     12      14.9403      0.00000

 k-point   642 :       0.0000    0.3125    0.5000
  band No.  band energies     occupation 
      1      -4.3291      2.00000
      2       0.5954      2.00000
      3       0.7271      2.00000
      4       1.6684      2.00000
      5       4.0864      2.00000
      6       7.5702      0.00000
      7       8.1327      0.00000
      8       8.3878      0.00000
      9       9.5300      0.00000
     10      12.2107      0.00000
     11      12.7004      0.00000
     12      16.7676      0.00000

 k-point   643 :       0.0625    0.3125    0.5000
  band No.  band energies     occupation 
      1      -4.0939      2.00000
      2       0.0861      2.00000
      3       1.1164      2.00000
      4       1.4047      2.00000
      5       3.8119      2.00000
      6       7.8587      0.00000
      7       8.2061      0.00000
      8       8.6600      0.00000
      9       9.8256      0.00000
     10      11.9667      0.00000
     11      12.3970      0.00000
     12      15.8189      0.00000

 k-point   644 :       0.1250    0.3125    0.5000
  band No.  band energies     occupation 
      1      -3.7901      2.00000
      2      -0.4619      2.00000
      3       1.0888      2.00000
      4       1.5783      2.00000
      5       3.5282      2.00000
      6       8.1498      0.00000
      7       8.3501      0.00000
      8       8.9235      0.00000
      9      10.1253      0.00000
     10      11.9849      0.00000
     11      12.1072      0.00000
     12      14.6392      0.00000

 k-point   645 :       0.1875    0.3125    0.5000
  band No.  band energies     occupation 
      1      -3.4217      2.00000
      2      -1.0333      2.00000
      3       0.8020      2.00000
      4       2.0594      2.00000
      5       3.2773      2.00000
      6       8.2523      0.00000
      7       8.7157      0.00000
      8       9.1504      0.00000
      9      10.2240      0.00000
     10      11.4660      0.00000
     11      12.7791      0.00000
     12      13.6202      0.00000

 k-point   646 :       0.2500    0.3125    0.5000
  band No.  band energies     occupation 
      1      -3.0015      2.00000
      2      -1.6051      2.00000
      3       0.6033      2.00000
      4       2.4687      2.00000
      5       3.0964      2.00000
      6       8.2706      0.00000
      7       9.1733      0.00000
      8       9.3474      0.00000
      9      10.1534      0.00000
     10      10.8431      0.00000
     11      12.9250      0.00000
     12      13.8556      0.00000

 k-point   647 :       0.3125    0.3125    0.5000
  band No.  band energies     occupation 
      1      -2.6078      2.00000
      2      -2.0871      2.00000
      3       0.5233      2.00000
      4       2.6379      2.00000
      5       3.0653      2.00000
      6       8.2554      0.00000
      7       9.5184      0.00000
      8       9.6428      0.00000
      9      10.0185      0.00000
     10      10.2280      0.00000
     11      12.5981      0.00000
     12      15.1159      0.00000

 k-point   648 :       0.3750    0.3125    0.5000
  band No.  band energies     occupation 
      1      -2.8107      2.00000
      2      -1.9065      2.00000
      3       0.5776      2.00000
      4       2.5148      2.00000
      5       3.1605      2.00000
      6       8.2353      0.00000
      7       9.4996      0.00000
      8       9.6581      0.00000
      9       9.8669      0.00000
     10      10.3273      0.00000
     11      12.6262      0.00000
     12      16.0416      0.00000

 k-point   649 :       0.0000    0.3750    0.5000
  band No.  band energies     occupation 
      1      -3.9035      2.00000
      2      -0.3047      2.00000
      3       1.3092      2.00000
      4       1.3960      2.00000
      5       3.6327      2.00000
      6       8.0479      0.00000
      7       8.2437      0.00000
      8       8.9049      0.00000
      9       9.9127      0.00000
     10      11.4680      0.00000
     11      12.1516      0.00000
     12      15.9451      0.00000

 k-point   650 :       0.0625    0.3750    0.5000
  band No.  band energies     occupation 
      1      -3.6535      2.00000
      2      -0.7267      2.00000
      3       1.1176      2.00000
      4       1.7429      2.00000
      5       3.4254      2.00000
      6       8.2505      0.00000
      7       8.3419      0.00000
      8       9.1476      0.00000
      9      10.1094      0.00000
     10      11.2932      0.00000
     11      11.8435      0.00000
     12      15.1448      0.00000

 k-point   651 :       0.1250    0.3750    0.5000
  band No.  band energies     occupation 
      1      -3.3495      2.00000
      2      -1.1547      2.00000
      3       0.8706      2.00000
      4       2.1140      2.00000
      5       3.2334      2.00000
      6       8.2987      0.00000
      7       8.6421      0.00000
      8       9.2979      0.00000
      9      10.2225      0.00000
     10      11.4923      0.00000
     11      11.6788      0.00000
     12      14.0783      0.00000

 k-point   652 :       0.1875    0.3750    0.5000
  band No.  band energies     occupation 
      1      -3.0050      2.00000
      2      -1.5831      2.00000
      3       0.6458      2.00000
      4       2.4363      2.00000
      5       3.1010      2.00000
      6       8.3040      0.00000
      7       9.0129      0.00000
      8       9.3872      0.00000
      9      10.1741      0.00000
     10      11.0698      0.00000
     11      12.5953      0.00000
     12      13.1952      0.00000

 k-point   653 :       0.2500    0.3750    0.5000
  band No.  band energies     occupation 
      1      -2.6603      2.00000
      2      -1.9871      2.00000
      3       0.5147      2.00000
      4       2.6117      2.00000
      5       3.0662      2.00000
      6       8.2828      0.00000
      7       9.4195      0.00000
      8       9.4551      0.00000
      9      10.0929      0.00000
     10      10.5607      0.00000
     11      12.6873      0.00000
     12      13.7920      0.00000

 k-point   654 :       0.0000    0.4375    0.5000
  band No.  band energies     occupation 
      1      -3.4811      2.00000
      2      -1.0199      2.00000
      3       1.0921      2.00000
      4       1.9558      2.00000
      5       3.2880      2.00000
      6       8.3179      0.00000
      7       8.4138      0.00000
      8       9.4609      0.00000
      9      10.1262      0.00000
     10      10.7681      0.00000
     11      11.6583      0.00000
     12      15.3830      0.00000

 k-point   655 :       0.0625    0.4375    0.5000
  band No.  band energies     occupation 
      1      -3.2907      2.00000
      2      -1.2808      2.00000
      3       0.9738      2.00000
      4       2.1791      2.00000
      5       3.1614      2.00000
      6       8.3329      0.00000
      7       8.5774      0.00000
      8       9.5856      0.00000
      9      10.2216      0.00000
     10      10.7785      0.00000
     11      11.4732      0.00000
     12      14.7693      0.00000

 k-point   656 :       0.1250    0.4375    0.5000
  band No.  band energies     occupation 
      1      -3.1153      2.00000
      2      -1.4758      2.00000
      3       0.7984      2.00000
      4       2.3533      2.00000
      5       3.0954      2.00000
      6       8.3290      0.00000
      7       8.7853      0.00000
      8       9.4858      0.00000
      9      10.2012      0.00000
     10      11.2860      0.00000
     11      11.5208      0.00000
     12      13.8814      0.00000

 k-point   657 :       0.0000    0.5000    0.5000
  band No.  band energies     occupation 
      1      -3.2673      2.00000
      2      -1.3326      2.00000
      3       1.0195      2.00000
      4       2.2100      2.00000
      5       3.1254      2.00000
      6       8.3436      0.00000
      7       8.5544      0.00000
      8       9.9475      0.00000
      9      10.1941      0.00000
     10      10.2321      0.00000
     11      11.4621      0.00000
     12      15.1774      0.00000


--------------------------------------------------------------------------------------------------------


 soft charge-density along one line, spin component           1
         0         1         2         3         4         5         6         7         8         9
 total charge-density along one line
 
 pseudopotential strength for first ion, spin component:           1
 -2.402  -0.000  -0.000  -0.000  -0.000  -2.183  -0.000  -0.000
 -0.000  -2.445  -0.000  -0.000   0.000  -0.000  -2.233  -0.000
 -0.000  -0.000  -2.461  -0.000   0.015  -0.000  -0.000  -2.253
 -0.000  -0.000  -0.000  -2.467  -0.000  -0.000  -0.000  -0.000
 -0.000   0.000   0.015  -0.000  -2.403  -0.000   0.000   0.017
 -2.183  -0.000  -0.000  -0.000  -0.000  -1.803  -0.000  -0.000
 -0.000  -2.233  -0.000  -0.000   0.000  -0.000  -1.860  -0.000
 -0.000  -0.000  -2.253  -0.000   0.017  -0.000  -0.000  -1.884
 -0.000  -0.000  -0.000  -2.259  -0.000  -0.000  -0.000  -0.000
 -0.000   0.000   0.017  -0.000  -2.185  -0.000   0.000   0.021
 -0.000   0.000   0.010   0.000   0.005  -0.000   0.000   0.011
  0.000  -0.000  -0.017  -0.000  -0.010   0.000  -0.000  -0.020
  0.000  -0.000   0.000  -0.000   0.000   0.000  -0.000   0.000
 -0.000  -0.000  -0.000   0.000  -0.000  -0.000  -0.000  -0.000
 -0.000  -0.000  -0.000  -0.000   0.000  -0.000  -0.000  -0.000
 total augmentation occupancy for first ion, spin component:           1
  4.702   0.000   0.000   0.000   0.000  -2.788   0.000   0.000   0.000   0.000   0.000   0.000   0.000   0.000   0.000
  0.000   7.381   0.000   0.000   0.000   0.000  -4.779   0.000   0.000   0.000   0.000   0.000   0.000   0.000   0.000
  0.000   0.000   3.984   0.000   0.014  -0.000   0.000  -2.385   0.000   0.004   0.219   0.035   0.000   0.000   0.000
  0.000   0.000   0.000   6.769   0.000   0.000   0.000   0.000  -4.410   0.000   0.000   0.000   0.000   0.000   0.000
  0.000   0.000   0.014   0.000   4.710   0.000   0.000   0.004   0.000  -2.815  -0.166  -0.003   0.000   0.000   0.000
 -2.788   0.000  -0.000   0.000   0.000   1.701   0.000   0.000   0.000   0.000  -0.000   0.000   0.000   0.000   0.000
  0.000  -4.779   0.000   0.000   0.000   0.000   3.156   0.000   0.000   0.000   0.000   0.000   0.000   0.000   0.000
  0.000   0.000  -2.385   0.000   0.004   0.000   0.000   1.480   0.000  -0.008  -0.219  -0.029   0.000   0.000   0.000
  0.000   0.000   0.000  -4.410   0.000   0.000   0.000   0.000   2.929   0.000   0.000   0.000   0.000   0.000   0.000
  0.000   0.000   0.004   0.000  -2.815   0.000   0.000  -0.008   0.000   1.726   0.091   0.002   0.000   0.000   0.000
  0.000   0.000   0.219   0.000  -0.166  -0.000   0.000  -0.219   0.000   0.091   1.747   0.114   0.000   0.000   0.000
  0.000   0.000   0.035   0.000  -0.003   0.000   0.000  -0.029   0.000   0.002   0.114   0.009   0.000   0.000   0.000
  0.000   0.000   0.000   0.000   0.000   0.000   0.000   0.000   0.000   0.000   0.000   0.000   0.438   0.000   0.000
  0.000   0.000   0.000   0.000   0.000   0.000   0.000   0.000   0.000   0.000   0.000   0.000   0.000   0.407   0.000
  0.000   0.000   0.000   0.000   0.000   0.000   0.000   0.000   0.000   0.000   0.000   0.000   0.000   0.000   0.386


------------------------ aborting loop because EDIFF is reached ----------------------------------------


    CHARGE:  cpu time    0.0730: real time    0.0733
    FORLOC:  cpu time    0.0010: real time    0.0003
    FORNL :  cpu time    0.1070: real time    0.1075
    STRESS:  cpu time    0.6629: real time    0.6635
    FORCOR:  cpu time    0.0040: real time    0.0044
    FORHAR:  cpu time    0.0010: real time    0.0010
    MIXING:  cpu time    0.0010: real time    0.0003
    OFIELD:  cpu time    0.0000: real time    0.0000

  FORCE on cell =-STRESS in cart. coord.  units (eV):
  Direction    XX          YY          ZZ          XY          YZ          ZX
  --------------------------------------------------------------------------------------
  Alpha Z    49.18368    49.18368    49.18368
  Ewald    -100.74846   -96.73434  -130.46150    -0.00000     0.00000     0.00000
  Hartree     6.93711     7.25090    -3.63101    -0.00000    -0.00000    -0.00000
  E(xc)     -35.21823   -35.53865   -35.44605     0.00000    -0.00000    -0.00000
  Local     -13.90513   -17.57822    25.51617    -0.00000    -0.00000    -0.00000
  n-local    -5.85990    -5.59530    -6.21025    -0.69728     0.36739    -0.04601
  augment     6.33011     6.42112     6.03492     0.00000     0.00000     0.00000
  Kinetic    87.67396    92.00850    94.10894    -1.51382     0.14442     0.05874
  Fock        0.00000     0.00000     0.00000     0.00000     0.00000     0.00000
  -------------------------------------------------------------------------------------
  Total      -5.60687    -0.58232    -0.90509     0.00000     0.00000     0.00000
  in kB    -329.79634   -34.25195   -53.23743     0.00000     0.00000     0.00000
  external pressure =     -139.10 kB  Pullay stress =        0.00 kB


 VOLUME and BASIS-vectors are now :
 -----------------------------------------------------------------------------
  energy-cutoff  :      600.00
  volume of cell :       27.24
      direct lattice vectors                 reciprocal lattice vectors
     3.214911346  0.000000000  0.000000000     0.311050568  0.190360237  0.000000000
    -1.607455673  2.626598959  0.000000000     0.000000000  0.380720474  0.000000000
     0.000000000  0.000000000  3.225689512     0.000000000  0.000000000  0.310011238

  length of vectors
     3.214911346  3.079437583  3.225689512     0.364677221  0.380720474  0.310011238


 FORCES acting on ions
    electron-ion (+dipol)            ewald-force                    non-local-force                 convergence-correction
 -----------------------------------------------------------------------------------------------
   -.110E-14 -.155E-14 -.246E-14   0.147E-14 0.133E-14 -.569E-15   0.000E+00 0.000E+00 0.000E+00   -.232E-14 -.110E-14 0.464E-13
   0.664E-08 0.241E+01 -.900E-09   -.251E-11 -.212E+01 0.249E-15   0.187E-15 -.283E+00 -.173E-17   -.617E-08 0.302E-03 -.418E-13
   -.664E-08 -.241E+01 0.900E-09   0.251E-11 0.212E+01 0.469E-15   -.902E-16 0.283E+00 0.173E-17   0.617E-08 -.302E-03 -.469E-13
 -----------------------------------------------------------------------------------------------
   0.898E-13 -.115E-12 -.440E-13   0.101E-15 0.888E-15 0.149E-15   0.971E-16 0.000E+00 0.000E+00   -.700E-15 -.441E-15 -.423E-13
 
 
 POSITION                                       TOTAL-FORCE (eV/Angst)
 -----------------------------------------------------------------------------------
      0.00000     -0.00000      0.00000         0.000000      0.000000      0.000000
      0.00000      1.74789      1.61284         0.000000      0.000263      0.000000
      1.60746      0.87871      1.61284        -0.000000     -0.000263      0.000000
 -----------------------------------------------------------------------------------
    total drift:                                0.000000     -0.000000     -0.000000


--------------------------------------------------------------------------------------------------------



  FREE ENERGIE OF THE ION-ELECTRON SYSTEM (eV)
  ---------------------------------------------------
  free  energy   TOTEN  =       -24.13939402 eV

  energy  without entropy=      -24.13897412  energy(sigma->0) =      -24.13918407
 
 d Force = 0.3320078E-04[ 0.571E-06, 0.658E-04]  d Energy = 0.3299535E-04 0.205E-06
 d Force =-0.4479003E-02[-0.462E-02,-0.434E-02]  d Ewald  =-0.4478893E-02-0.110E-06


--------------------------------------------------------------------------------------------------------


    POTLOK:  cpu time    0.0070: real time    0.0074


--------------------------------------------------------------------------------------------------------


 Quasi-Newton relaxation of ions (Broydens 2nd method)
  g(Force)  = 0.666E-08   g(Stress)= 0.000E+00

 retain information from N=  1 steps
 eigenvalues of (default step * inverse Hessian matrix)
  average eigenvalue of G=   0.7516
 eigenvalue spectrum of G is  0.7516


--------------------------------------------------------------------------------------------------------


  
 reached required accuracy - stopping structural energy minimisation
     LOOP+:  cpu time    6.9849: real time    6.9987
    4ORBIT:  cpu time    0.0000: real time    0.0000

 total amount of memory used by VASP MPI-rank0    57054. kBytes
=======================================================================

   base      :      30000. kBytes
   nonl-proj :      21451. kBytes
   fftplans  :        313. kBytes
   grid      :        487. kBytes
   one-center:         10. kBytes
   wavefun   :       4793. kBytes
 
  
  
 General timing and accounting informations for this job:
 ========================================================
  
                  Total CPU time used (sec):       44.537
                            User time (sec):       44.201
                          System time (sec):        0.336
                         Elapsed time (sec):       44.632
  
                   Maximum memory used (kb):      103132.
                   Average memory used (kb):           0.
  
                          Minor page faults:        13218
                          Major page faults:            0
                 Voluntary context switches:          317
