<?xml version="1.0" encoding="ISO-8859-1"?>
<modeling>
 <generator>
  <i name="program" type="string">vasp </i>
  <i name="version" type="string">5.4.4.18Apr17-6-g9f103f2a35  </i>
  <i name="subversion" type="string">(build Nov 22 2017 20:28:56) complex            parallel </i>
  <i name="platform" type="string">LinuxIFC </i>
  <i name="date" type="string">2019 09 11 </i>
  <i name="time" type="string">22:48:34 </i>
 </generator>
 <incar>
  <i type="int" name="ISTART">     0</i>
  <i type="string" name="PREC">accurate</i>
  <i type="int" name="IALGO">    48</i>
  <i type="string" name="ALGO"> Very Fast</i>
  <i type="int" name="NSIM">     4</i>
  <i type="int" name="IBRION">     1</i>
  <i name="EDIFF">      0.00000100</i>
  <i type="int" name="NSW">    50</i>
  <i type="int" name="ISIF">     2</i>
  <i type="int" name="ISYM">     2</i>
  <i name="ENCUT">    600.00000000</i>
  <i name="POTIM">      0.50000000</i>
  <i type="logical" name="LPLANE"> T  </i>
  <i type="int" name="ISMEAR">     0</i>
  <i name="SIGMA">      0.05000000</i>
  <i type="logical" name="LWAVE"> F  </i>
  <i type="logical" name="LCHARG"> F  </i>
  <v type="int" name="KPOINT_BSE">    -1     0     0     0</v>
 </incar>
 <structure name="primitive_cell" >
  <crystal>
   <varray name="basis" >
    <v>       3.21491135       0.00000000       0.00000000 </v>
    <v>      -1.60745567       2.62659896       0.00000000 </v>
    <v>       0.00000000       0.00000000       3.22568951 </v>
   </varray>
   <i name="volume">     27.23863444 </i>
   <varray name="rec_basis" >
    <v>       0.31105057       0.19036024       0.00000000 </v>
    <v>       0.00000000       0.38072047       0.00000000 </v>
    <v>       0.00000000       0.00000000       0.31001124 </v>
   </varray>
  </crystal>
  <varray name="positions" >
   <v>       0.00000000       0.00000000       0.00000000 </v>
   <v>       0.33333333      -0.33333333      -0.50000000 </v>
   <v>      -0.33333333       0.33333333      -0.50000000 </v>
  </varray>
 </structure>
 <varray name="primitive_index" >
  <v type="int" >        1 </v>
  <v type="int" >        2 </v>
  <v type="int" >        3 </v>
 </varray>
 <kpoints>
  <generation param="Gamma">
   <v type="int" name="divisions">      16       16       16 </v>
   <v name="usershift">      0.00000000       0.00000000       0.00000000 </v>
   <v name="genvec1">      0.06250000       0.00000000       0.00000000 </v>
   <v name="genvec2">      0.00000000       0.06250000       0.00000000 </v>
   <v name="genvec3">      0.00000000       0.00000000       0.06250000 </v>
   <v name="shift">      0.00000000       0.00000000       0.00000000 </v>
  </generation>
  <varray name="kpointlist" >
   <v>       0.00000000       0.00000000       0.00000000 </v>
   <v>       0.06250000       0.00000000       0.00000000 </v>
   <v>       0.12500000       0.00000000       0.00000000 </v>
   <v>       0.18750000      -0.00000000       0.00000000 </v>
   <v>       0.25000000       0.00000000       0.00000000 </v>
   <v>       0.31250000      -0.00000000       0.00000000 </v>
   <v>       0.37500000      -0.00000000       0.00000000 </v>
   <v>       0.43750000      -0.00000000       0.00000000 </v>
   <v>       0.50000000       0.00000000       0.00000000 </v>
   <v>       0.00000000       0.06250000       0.00000000 </v>
   <v>       0.06250000       0.06250000       0.00000000 </v>
   <v>       0.12500000       0.06250000       0.00000000 </v>
   <v>       0.18750000       0.06250000       0.00000000 </v>
   <v>       0.25000000       0.06250000       0.00000000 </v>
   <v>       0.31250000       0.06250000       0.00000000 </v>
   <v>       0.37500000       0.06250000       0.00000000 </v>
   <v>       0.43750000       0.06250000       0.00000000 </v>
   <v>       0.50000000       0.06250000       0.00000000 </v>
   <v>      -0.43750000       0.06250000       0.00000000 </v>
   <v>      -0.37500000       0.06250000       0.00000000 </v>
   <v>      -0.31250000       0.06250000       0.00000000 </v>
   <v>      -0.25000000       0.06250000       0.00000000 </v>
   <v>      -0.18750000       0.06250000       0.00000000 </v>
   <v>      -0.12500000       0.06250000       0.00000000 </v>
   <v>       0.00000000       0.12500000       0.00000000 </v>
   <v>       0.06250000       0.12500000       0.00000000 </v>
   <v>       0.12500000       0.12500000       0.00000000 </v>
   <v>       0.18750000       0.12500000       0.00000000 </v>
   <v>       0.25000000       0.12500000       0.00000000 </v>
   <v>       0.31250000       0.12500000       0.00000000 </v>
   <v>       0.37500000       0.12500000       0.00000000 </v>
   <v>       0.43750000       0.12500000       0.00000000 </v>
   <v>       0.50000000       0.12500000       0.00000000 </v>
   <v>      -0.43750000       0.12500000       0.00000000 </v>
   <v>      -0.37500000       0.12500000       0.00000000 </v>
   <v>      -0.31250000       0.12500000       0.00000000 </v>
   <v>      -0.25000000       0.12500000       0.00000000 </v>
   <v>       0.00000000       0.18750000       0.00000000 </v>
   <v>       0.06250000       0.18750000       0.00000000 </v>
   <v>       0.12500000       0.18750000       0.00000000 </v>
   <v>       0.18750000       0.18750000       0.00000000 </v>
   <v>       0.25000000       0.18750000       0.00000000 </v>
   <v>       0.31250000       0.18750000       0.00000000 </v>
   <v>       0.37500000       0.18750000       0.00000000 </v>
   <v>       0.43750000       0.18750000       0.00000000 </v>
   <v>       0.50000000       0.18750000       0.00000000 </v>
   <v>      -0.43750000       0.18750000       0.00000000 </v>
   <v>      -0.37500000       0.18750000       0.00000000 </v>
   <v>       0.00000000       0.25000000       0.00000000 </v>
   <v>       0.06250000       0.25000000       0.00000000 </v>
   <v>       0.12500000       0.25000000       0.00000000 </v>
   <v>       0.18750000       0.25000000       0.00000000 </v>
   <v>       0.25000000       0.25000000       0.00000000 </v>
   <v>       0.31250000       0.25000000       0.00000000 </v>
   <v>       0.37500000       0.25000000       0.00000000 </v>
   <v>       0.43750000       0.25000000       0.00000000 </v>
   <v>       0.50000000       0.25000000       0.00000000 </v>
   <v>       0.00000000       0.31250000       0.00000000 </v>
   <v>       0.06250000       0.31250000       0.00000000 </v>
   <v>       0.12500000       0.31250000       0.00000000 </v>
   <v>       0.18750000       0.31250000       0.00000000 </v>
   <v>       0.25000000       0.31250000       0.00000000 </v>
   <v>       0.31250000       0.31250000       0.00000000 </v>
   <v>       0.37500000       0.31250000       0.00000000 </v>
   <v>       0.00000000       0.37500000       0.00000000 </v>
   <v>       0.06250000       0.37500000       0.00000000 </v>
   <v>       0.12500000       0.37500000       0.00000000 </v>
   <v>       0.18750000       0.37500000       0.00000000 </v>
   <v>       0.25000000       0.37500000       0.00000000 </v>
   <v>       0.00000000       0.43750000       0.00000000 </v>
   <v>       0.06250000       0.43750000       0.00000000 </v>
   <v>       0.12500000       0.43750000       0.00000000 </v>
   <v>       0.00000000       0.50000000       0.00000000 </v>
   <v>       0.00000000       0.00000000       0.06250000 </v>
   <v>       0.06250000       0.00000000       0.06250000 </v>
   <v>       0.12500000       0.00000000       0.06250000 </v>
   <v>       0.18750000      -0.00000000       0.06250000 </v>
   <v>       0.25000000       0.00000000       0.06250000 </v>
   <v>       0.31250000      -0.00000000       0.06250000 </v>
   <v>       0.37500000      -0.00000000       0.06250000 </v>
   <v>       0.43750000      -0.00000000       0.06250000 </v>
   <v>       0.50000000       0.00000000       0.06250000 </v>
   <v>       0.00000000       0.06250000       0.06250000 </v>
   <v>       0.06250000       0.06250000       0.06250000 </v>
   <v>       0.12500000       0.06250000       0.06250000 </v>
   <v>       0.18750000       0.06250000       0.06250000 </v>
   <v>       0.25000000       0.06250000       0.06250000 </v>
   <v>       0.31250000       0.06250000       0.06250000 </v>
   <v>       0.37500000       0.06250000       0.06250000 </v>
   <v>       0.43750000       0.06250000       0.06250000 </v>
   <v>       0.50000000       0.06250000       0.06250000 </v>
   <v>      -0.43750000       0.06250000       0.06250000 </v>
   <v>      -0.37500000       0.06250000       0.06250000 </v>
   <v>      -0.31250000       0.06250000       0.06250000 </v>
   <v>      -0.25000000       0.06250000       0.06250000 </v>
   <v>      -0.18750000       0.06250000       0.06250000 </v>
   <v>      -0.12500000       0.06250000       0.06250000 </v>
   <v>       0.00000000       0.12500000       0.06250000 </v>
   <v>       0.06250000       0.12500000       0.06250000 </v>
   <v>       0.12500000       0.12500000       0.06250000 </v>
   <v>       0.18750000       0.12500000       0.06250000 </v>
   <v>       0.25000000       0.12500000       0.06250000 </v>
   <v>       0.31250000       0.12500000       0.06250000 </v>
   <v>       0.37500000       0.12500000       0.06250000 </v>
   <v>       0.43750000       0.12500000       0.06250000 </v>
   <v>       0.50000000       0.12500000       0.06250000 </v>
   <v>      -0.43750000       0.12500000       0.06250000 </v>
   <v>      -0.37500000       0.12500000       0.06250000 </v>
   <v>      -0.31250000       0.12500000       0.06250000 </v>
   <v>      -0.25000000       0.12500000       0.06250000 </v>
   <v>       0.00000000       0.18750000       0.06250000 </v>
   <v>       0.06250000       0.18750000       0.06250000 </v>
   <v>       0.12500000       0.18750000       0.06250000 </v>
   <v>       0.18750000       0.18750000       0.06250000 </v>
   <v>       0.25000000       0.18750000       0.06250000 </v>
   <v>       0.31250000       0.18750000       0.06250000 </v>
   <v>       0.37500000       0.18750000       0.06250000 </v>
   <v>       0.43750000       0.18750000       0.06250000 </v>
   <v>       0.50000000       0.18750000       0.06250000 </v>
   <v>      -0.43750000       0.18750000       0.06250000 </v>
   <v>      -0.37500000       0.18750000       0.06250000 </v>
   <v>       0.00000000       0.25000000       0.06250000 </v>
   <v>       0.06250000       0.25000000       0.06250000 </v>
   <v>       0.12500000       0.25000000       0.06250000 </v>
   <v>       0.18750000       0.25000000       0.06250000 </v>
   <v>       0.25000000       0.25000000       0.06250000 </v>
   <v>       0.31250000       0.25000000       0.06250000 </v>
   <v>       0.37500000       0.25000000       0.06250000 </v>
   <v>       0.43750000       0.25000000       0.06250000 </v>
   <v>       0.50000000       0.25000000       0.06250000 </v>
   <v>       0.00000000       0.31250000       0.06250000 </v>
   <v>       0.06250000       0.31250000       0.06250000 </v>
   <v>       0.12500000       0.31250000       0.06250000 </v>
   <v>       0.18750000       0.31250000       0.06250000 </v>
   <v>       0.25000000       0.31250000       0.06250000 </v>
   <v>       0.31250000       0.31250000       0.06250000 </v>
   <v>       0.37500000       0.31250000       0.06250000 </v>
   <v>       0.00000000       0.37500000       0.06250000 </v>
   <v>       0.06250000       0.37500000       0.06250000 </v>
   <v>       0.12500000       0.37500000       0.06250000 </v>
   <v>       0.18750000       0.37500000       0.06250000 </v>
   <v>       0.25000000       0.37500000       0.06250000 </v>
   <v>       0.00000000       0.43750000       0.06250000 </v>
   <v>       0.06250000       0.43750000       0.06250000 </v>
   <v>       0.12500000       0.43750000       0.06250000 </v>
   <v>       0.00000000       0.50000000       0.06250000 </v>
   <v>       0.00000000       0.00000000       0.12500000 </v>
   <v>       0.06250000       0.00000000       0.12500000 </v>
   <v>       0.12500000       0.00000000       0.12500000 </v>
   <v>       0.18750000      -0.00000000       0.12500000 </v>
   <v>       0.25000000       0.00000000       0.12500000 </v>
   <v>       0.31250000      -0.00000000       0.12500000 </v>
   <v>       0.37500000      -0.00000000       0.12500000 </v>
   <v>       0.43750000      -0.00000000       0.12500000 </v>
   <v>       0.50000000       0.00000000       0.12500000 </v>
   <v>       0.00000000       0.06250000       0.12500000 </v>
   <v>       0.06250000       0.06250000       0.12500000 </v>
   <v>       0.12500000       0.06250000       0.12500000 </v>
   <v>       0.18750000       0.06250000       0.12500000 </v>
   <v>       0.25000000       0.06250000       0.12500000 </v>
   <v>       0.31250000       0.06250000       0.12500000 </v>
   <v>       0.37500000       0.06250000       0.12500000 </v>
   <v>       0.43750000       0.06250000       0.12500000 </v>
   <v>       0.50000000       0.06250000       0.12500000 </v>
   <v>      -0.43750000       0.06250000       0.12500000 </v>
   <v>      -0.37500000       0.06250000       0.12500000 </v>
   <v>      -0.31250000       0.06250000       0.12500000 </v>
   <v>      -0.25000000       0.06250000       0.12500000 </v>
   <v>      -0.18750000       0.06250000       0.12500000 </v>
   <v>      -0.12500000       0.06250000       0.12500000 </v>
   <v>       0.00000000       0.12500000       0.12500000 </v>
   <v>       0.06250000       0.12500000       0.12500000 </v>
   <v>       0.12500000       0.12500000       0.12500000 </v>
   <v>       0.18750000       0.12500000       0.12500000 </v>
   <v>       0.25000000       0.12500000       0.12500000 </v>
   <v>       0.31250000       0.12500000       0.12500000 </v>
   <v>       0.37500000       0.12500000       0.12500000 </v>
   <v>       0.43750000       0.12500000       0.12500000 </v>
   <v>       0.50000000       0.12500000       0.12500000 </v>
   <v>      -0.43750000       0.12500000       0.12500000 </v>
   <v>      -0.37500000       0.12500000       0.12500000 </v>
   <v>      -0.31250000       0.12500000       0.12500000 </v>
   <v>      -0.25000000       0.12500000       0.12500000 </v>
   <v>       0.00000000       0.18750000       0.12500000 </v>
   <v>       0.06250000       0.18750000       0.12500000 </v>
   <v>       0.12500000       0.18750000       0.12500000 </v>
   <v>       0.18750000       0.18750000       0.12500000 </v>
   <v>       0.25000000       0.18750000       0.12500000 </v>
   <v>       0.31250000       0.18750000       0.12500000 </v>
   <v>       0.37500000       0.18750000       0.12500000 </v>
   <v>       0.43750000       0.18750000       0.12500000 </v>
   <v>       0.50000000       0.18750000       0.12500000 </v>
   <v>      -0.43750000       0.18750000       0.12500000 </v>
   <v>      -0.37500000       0.18750000       0.12500000 </v>
   <v>       0.00000000       0.25000000       0.12500000 </v>
   <v>       0.06250000       0.25000000       0.12500000 </v>
   <v>       0.12500000       0.25000000       0.12500000 </v>
   <v>       0.18750000       0.25000000       0.12500000 </v>
   <v>       0.25000000       0.25000000       0.12500000 </v>
   <v>       0.31250000       0.25000000       0.12500000 </v>
   <v>       0.37500000       0.25000000       0.12500000 </v>
   <v>       0.43750000       0.25000000       0.12500000 </v>
   <v>       0.50000000       0.25000000       0.12500000 </v>
   <v>       0.00000000       0.31250000       0.12500000 </v>
   <v>       0.06250000       0.31250000       0.12500000 </v>
   <v>       0.12500000       0.31250000       0.12500000 </v>
   <v>       0.18750000       0.31250000       0.12500000 </v>
   <v>       0.25000000       0.31250000       0.12500000 </v>
   <v>       0.31250000       0.31250000       0.12500000 </v>
   <v>       0.37500000       0.31250000       0.12500000 </v>
   <v>       0.00000000       0.37500000       0.12500000 </v>
   <v>       0.06250000       0.37500000       0.12500000 </v>
   <v>       0.12500000       0.37500000       0.12500000 </v>
   <v>       0.18750000       0.37500000       0.12500000 </v>
   <v>       0.25000000       0.37500000       0.12500000 </v>
   <v>       0.00000000       0.43750000       0.12500000 </v>
   <v>       0.06250000       0.43750000       0.12500000 </v>
   <v>       0.12500000       0.43750000       0.12500000 </v>
   <v>       0.00000000       0.50000000       0.12500000 </v>
   <v>       0.00000000       0.00000000       0.18750000 </v>
   <v>       0.06250000       0.00000000       0.18750000 </v>
   <v>       0.12500000       0.00000000       0.18750000 </v>
   <v>       0.18750000      -0.00000000       0.18750000 </v>
   <v>       0.25000000       0.00000000       0.18750000 </v>
   <v>       0.31250000      -0.00000000       0.18750000 </v>
   <v>       0.37500000      -0.00000000       0.18750000 </v>
   <v>       0.43750000      -0.00000000       0.18750000 </v>
   <v>       0.50000000       0.00000000       0.18750000 </v>
   <v>       0.00000000       0.06250000       0.18750000 </v>
   <v>       0.06250000       0.06250000       0.18750000 </v>
   <v>       0.12500000       0.06250000       0.18750000 </v>
   <v>       0.18750000       0.06250000       0.18750000 </v>
   <v>       0.25000000       0.06250000       0.18750000 </v>
   <v>       0.31250000       0.06250000       0.18750000 </v>
   <v>       0.37500000       0.06250000       0.18750000 </v>
   <v>       0.43750000       0.06250000       0.18750000 </v>
   <v>       0.50000000       0.06250000       0.18750000 </v>
   <v>      -0.43750000       0.06250000       0.18750000 </v>
   <v>      -0.37500000       0.06250000       0.18750000 </v>
   <v>      -0.31250000       0.06250000       0.18750000 </v>
   <v>      -0.25000000       0.06250000       0.18750000 </v>
   <v>      -0.18750000       0.06250000       0.18750000 </v>
   <v>      -0.12500000       0.06250000       0.18750000 </v>
   <v>       0.00000000       0.12500000       0.18750000 </v>
   <v>       0.06250000       0.12500000       0.18750000 </v>
   <v>       0.12500000       0.12500000       0.18750000 </v>
   <v>       0.18750000       0.12500000       0.18750000 </v>
   <v>       0.25000000       0.12500000       0.18750000 </v>
   <v>       0.31250000       0.12500000       0.18750000 </v>
   <v>       0.37500000       0.12500000       0.18750000 </v>
   <v>       0.43750000       0.12500000       0.18750000 </v>
   <v>       0.50000000       0.12500000       0.18750000 </v>
   <v>      -0.43750000       0.12500000       0.18750000 </v>
   <v>      -0.37500000       0.12500000       0.18750000 </v>
   <v>      -0.31250000       0.12500000       0.18750000 </v>
   <v>      -0.25000000       0.12500000       0.18750000 </v>
   <v>       0.00000000       0.18750000       0.18750000 </v>
   <v>       0.06250000       0.18750000       0.18750000 </v>
   <v>       0.12500000       0.18750000       0.18750000 </v>
   <v>       0.18750000       0.18750000       0.18750000 </v>
   <v>       0.25000000       0.18750000       0.18750000 </v>
   <v>       0.31250000       0.18750000       0.18750000 </v>
   <v>       0.37500000       0.18750000       0.18750000 </v>
   <v>       0.43750000       0.18750000       0.18750000 </v>
   <v>       0.50000000       0.18750000       0.18750000 </v>
   <v>      -0.43750000       0.18750000       0.18750000 </v>
   <v>      -0.37500000       0.18750000       0.18750000 </v>
   <v>       0.00000000       0.25000000       0.18750000 </v>
   <v>       0.06250000       0.25000000       0.18750000 </v>
   <v>       0.12500000       0.25000000       0.18750000 </v>
   <v>       0.18750000       0.25000000       0.18750000 </v>
   <v>       0.25000000       0.25000000       0.18750000 </v>
   <v>       0.31250000       0.25000000       0.18750000 </v>
   <v>       0.37500000       0.25000000       0.18750000 </v>
   <v>       0.43750000       0.25000000       0.18750000 </v>
   <v>       0.50000000       0.25000000       0.18750000 </v>
   <v>       0.00000000       0.31250000       0.18750000 </v>
   <v>       0.06250000       0.31250000       0.18750000 </v>
   <v>       0.12500000       0.31250000       0.18750000 </v>
   <v>       0.18750000       0.31250000       0.18750000 </v>
   <v>       0.25000000       0.31250000       0.18750000 </v>
   <v>       0.31250000       0.31250000       0.18750000 </v>
   <v>       0.37500000       0.31250000       0.18750000 </v>
   <v>       0.00000000       0.37500000       0.18750000 </v>
   <v>       0.06250000       0.37500000       0.18750000 </v>
   <v>       0.12500000       0.37500000       0.18750000 </v>
   <v>       0.18750000       0.37500000       0.18750000 </v>
   <v>       0.25000000       0.37500000       0.18750000 </v>
   <v>       0.00000000       0.43750000       0.18750000 </v>
   <v>       0.06250000       0.43750000       0.18750000 </v>
   <v>       0.12500000       0.43750000       0.18750000 </v>
   <v>       0.00000000       0.50000000       0.18750000 </v>
   <v>       0.00000000       0.00000000       0.25000000 </v>
   <v>       0.06250000       0.00000000       0.25000000 </v>
   <v>       0.12500000       0.00000000       0.25000000 </v>
   <v>       0.18750000      -0.00000000       0.25000000 </v>
   <v>       0.25000000       0.00000000       0.25000000 </v>
   <v>       0.31250000      -0.00000000       0.25000000 </v>
   <v>       0.37500000      -0.00000000       0.25000000 </v>
   <v>       0.43750000      -0.00000000       0.25000000 </v>
   <v>       0.50000000       0.00000000       0.25000000 </v>
   <v>       0.00000000       0.06250000       0.25000000 </v>
   <v>       0.06250000       0.06250000       0.25000000 </v>
   <v>       0.12500000       0.06250000       0.25000000 </v>
   <v>       0.18750000       0.06250000       0.25000000 </v>
   <v>       0.25000000       0.06250000       0.25000000 </v>
   <v>       0.31250000       0.06250000       0.25000000 </v>
   <v>       0.37500000       0.06250000       0.25000000 </v>
   <v>       0.43750000       0.06250000       0.25000000 </v>
   <v>       0.50000000       0.06250000       0.25000000 </v>
   <v>      -0.43750000       0.06250000       0.25000000 </v>
   <v>      -0.37500000       0.06250000       0.25000000 </v>
   <v>      -0.31250000       0.06250000       0.25000000 </v>
   <v>      -0.25000000       0.06250000       0.25000000 </v>
   <v>      -0.18750000       0.06250000       0.25000000 </v>
   <v>      -0.12500000       0.06250000       0.25000000 </v>
   <v>       0.00000000       0.12500000       0.25000000 </v>
   <v>       0.06250000       0.12500000       0.25000000 </v>
   <v>       0.12500000       0.12500000       0.25000000 </v>
   <v>       0.18750000       0.12500000       0.25000000 </v>
   <v>       0.25000000       0.12500000       0.25000000 </v>
   <v>       0.31250000       0.12500000       0.25000000 </v>
   <v>       0.37500000       0.12500000       0.25000000 </v>
   <v>       0.43750000       0.12500000       0.25000000 </v>
   <v>       0.50000000       0.12500000       0.25000000 </v>
   <v>      -0.43750000       0.12500000       0.25000000 </v>
   <v>      -0.37500000       0.12500000       0.25000000 </v>
   <v>      -0.31250000       0.12500000       0.25000000 </v>
   <v>      -0.25000000       0.12500000       0.25000000 </v>
   <v>       0.00000000       0.18750000       0.25000000 </v>
   <v>       0.06250000       0.18750000       0.25000000 </v>
   <v>       0.12500000       0.18750000       0.25000000 </v>
   <v>       0.18750000       0.18750000       0.25000000 </v>
   <v>       0.25000000       0.18750000       0.25000000 </v>
   <v>       0.31250000       0.18750000       0.25000000 </v>
   <v>       0.37500000       0.18750000       0.25000000 </v>
   <v>       0.43750000       0.18750000       0.25000000 </v>
   <v>       0.50000000       0.18750000       0.25000000 </v>
   <v>      -0.43750000       0.18750000       0.25000000 </v>
   <v>      -0.37500000       0.18750000       0.25000000 </v>
   <v>       0.00000000       0.25000000       0.25000000 </v>
   <v>       0.06250000       0.25000000       0.25000000 </v>
   <v>       0.12500000       0.25000000       0.25000000 </v>
   <v>       0.18750000       0.25000000       0.25000000 </v>
   <v>       0.25000000       0.25000000       0.25000000 </v>
   <v>       0.31250000       0.25000000       0.25000000 </v>
   <v>       0.37500000       0.25000000       0.25000000 </v>
   <v>       0.43750000       0.25000000       0.25000000 </v>
   <v>       0.50000000       0.25000000       0.25000000 </v>
   <v>       0.00000000       0.31250000       0.25000000 </v>
   <v>       0.06250000       0.31250000       0.25000000 </v>
   <v>       0.12500000       0.31250000       0.25000000 </v>
   <v>       0.18750000       0.31250000       0.25000000 </v>
   <v>       0.25000000       0.31250000       0.25000000 </v>
   <v>       0.31250000       0.31250000       0.25000000 </v>
   <v>       0.37500000       0.31250000       0.25000000 </v>
   <v>       0.00000000       0.37500000       0.25000000 </v>
   <v>       0.06250000       0.37500000       0.25000000 </v>
   <v>       0.12500000       0.37500000       0.25000000 </v>
   <v>       0.18750000       0.37500000       0.25000000 </v>
   <v>       0.25000000       0.37500000       0.25000000 </v>
   <v>       0.00000000       0.43750000       0.25000000 </v>
   <v>       0.06250000       0.43750000       0.25000000 </v>
   <v>       0.12500000       0.43750000       0.25000000 </v>
   <v>       0.00000000       0.50000000       0.25000000 </v>
   <v>       0.00000000       0.00000000       0.31250000 </v>
   <v>       0.06250000       0.00000000       0.31250000 </v>
   <v>       0.12500000       0.00000000       0.31250000 </v>
   <v>       0.18750000      -0.00000000       0.31250000 </v>
   <v>       0.25000000       0.00000000       0.31250000 </v>
   <v>       0.31250000      -0.00000000       0.31250000 </v>
   <v>       0.37500000      -0.00000000       0.31250000 </v>
   <v>       0.43750000      -0.00000000       0.31250000 </v>
   <v>       0.50000000       0.00000000       0.31250000 </v>
   <v>       0.00000000       0.06250000       0.31250000 </v>
   <v>       0.06250000       0.06250000       0.31250000 </v>
   <v>       0.12500000       0.06250000       0.31250000 </v>
   <v>       0.18750000       0.06250000       0.31250000 </v>
   <v>       0.25000000       0.06250000       0.31250000 </v>
   <v>       0.31250000       0.06250000       0.31250000 </v>
   <v>       0.37500000       0.06250000       0.31250000 </v>
   <v>       0.43750000       0.06250000       0.31250000 </v>
   <v>       0.50000000       0.06250000       0.31250000 </v>
   <v>      -0.43750000       0.06250000       0.31250000 </v>
   <v>      -0.37500000       0.06250000       0.31250000 </v>
   <v>      -0.31250000       0.06250000       0.31250000 </v>
   <v>      -0.25000000       0.06250000       0.31250000 </v>
   <v>      -0.18750000       0.06250000       0.31250000 </v>
   <v>      -0.12500000       0.06250000       0.31250000 </v>
   <v>       0.00000000       0.12500000       0.31250000 </v>
   <v>       0.06250000       0.12500000       0.31250000 </v>
   <v>       0.12500000       0.12500000       0.31250000 </v>
   <v>       0.18750000       0.12500000       0.31250000 </v>
   <v>       0.25000000       0.12500000       0.31250000 </v>
   <v>       0.31250000       0.12500000       0.31250000 </v>
   <v>       0.37500000       0.12500000       0.31250000 </v>
   <v>       0.43750000       0.12500000       0.31250000 </v>
   <v>       0.50000000       0.12500000       0.31250000 </v>
   <v>      -0.43750000       0.12500000       0.31250000 </v>
   <v>      -0.37500000       0.12500000       0.31250000 </v>
   <v>      -0.31250000       0.12500000       0.31250000 </v>
   <v>      -0.25000000       0.12500000       0.31250000 </v>
   <v>       0.00000000       0.18750000       0.31250000 </v>
   <v>       0.06250000       0.18750000       0.31250000 </v>
   <v>       0.12500000       0.18750000       0.31250000 </v>
   <v>       0.18750000       0.18750000       0.31250000 </v>
   <v>       0.25000000       0.18750000       0.31250000 </v>
   <v>       0.31250000       0.18750000       0.31250000 </v>
   <v>       0.37500000       0.18750000       0.31250000 </v>
   <v>       0.43750000       0.18750000       0.31250000 </v>
   <v>       0.50000000       0.18750000       0.31250000 </v>
   <v>      -0.43750000       0.18750000       0.31250000 </v>
   <v>      -0.37500000       0.18750000       0.31250000 </v>
   <v>       0.00000000       0.25000000       0.31250000 </v>
   <v>       0.06250000       0.25000000       0.31250000 </v>
   <v>       0.12500000       0.25000000       0.31250000 </v>
   <v>       0.18750000       0.25000000       0.31250000 </v>
   <v>       0.25000000       0.25000000       0.31250000 </v>
   <v>       0.31250000       0.25000000       0.31250000 </v>
   <v>       0.37500000       0.25000000       0.31250000 </v>
   <v>       0.43750000       0.25000000       0.31250000 </v>
   <v>       0.50000000       0.25000000       0.31250000 </v>
   <v>       0.00000000       0.31250000       0.31250000 </v>
   <v>       0.06250000       0.31250000       0.31250000 </v>
   <v>       0.12500000       0.31250000       0.31250000 </v>
   <v>       0.18750000       0.31250000       0.31250000 </v>
   <v>       0.25000000       0.31250000       0.31250000 </v>
   <v>       0.31250000       0.31250000       0.31250000 </v>
   <v>       0.37500000       0.31250000       0.31250000 </v>
   <v>       0.00000000       0.37500000       0.31250000 </v>
   <v>       0.06250000       0.37500000       0.31250000 </v>
   <v>       0.12500000       0.37500000       0.31250000 </v>
   <v>       0.18750000       0.37500000       0.31250000 </v>
   <v>       0.25000000       0.37500000       0.31250000 </v>
   <v>       0.00000000       0.43750000       0.31250000 </v>
   <v>       0.06250000       0.43750000       0.31250000 </v>
   <v>       0.12500000       0.43750000       0.31250000 </v>
   <v>       0.00000000       0.50000000       0.31250000 </v>
   <v>       0.00000000       0.00000000       0.37500000 </v>
   <v>       0.06250000       0.00000000       0.37500000 </v>
   <v>       0.12500000       0.00000000       0.37500000 </v>
   <v>       0.18750000      -0.00000000       0.37500000 </v>
   <v>       0.25000000       0.00000000       0.37500000 </v>
   <v>       0.31250000      -0.00000000       0.37500000 </v>
   <v>       0.37500000      -0.00000000       0.37500000 </v>
   <v>       0.43750000      -0.00000000       0.37500000 </v>
   <v>       0.50000000       0.00000000       0.37500000 </v>
   <v>       0.00000000       0.06250000       0.37500000 </v>
   <v>       0.06250000       0.06250000       0.37500000 </v>
   <v>       0.12500000       0.06250000       0.37500000 </v>
   <v>       0.18750000       0.06250000       0.37500000 </v>
   <v>       0.25000000       0.06250000       0.37500000 </v>
   <v>       0.31250000       0.06250000       0.37500000 </v>
   <v>       0.37500000       0.06250000       0.37500000 </v>
   <v>       0.43750000       0.06250000       0.37500000 </v>
   <v>       0.50000000       0.06250000       0.37500000 </v>
   <v>      -0.43750000       0.06250000       0.37500000 </v>
   <v>      -0.37500000       0.06250000       0.37500000 </v>
   <v>      -0.31250000       0.06250000       0.37500000 </v>
   <v>      -0.25000000       0.06250000       0.37500000 </v>
   <v>      -0.18750000       0.06250000       0.37500000 </v>
   <v>      -0.12500000       0.06250000       0.37500000 </v>
   <v>       0.00000000       0.12500000       0.37500000 </v>
   <v>       0.06250000       0.12500000       0.37500000 </v>
   <v>       0.12500000       0.12500000       0.37500000 </v>
   <v>       0.18750000       0.12500000       0.37500000 </v>
   <v>       0.25000000       0.12500000       0.37500000 </v>
   <v>       0.31250000       0.12500000       0.37500000 </v>
   <v>       0.37500000       0.12500000       0.37500000 </v>
   <v>       0.43750000       0.12500000       0.37500000 </v>
   <v>       0.50000000       0.12500000       0.37500000 </v>
   <v>      -0.43750000       0.12500000       0.37500000 </v>
   <v>      -0.37500000       0.12500000       0.37500000 </v>
   <v>      -0.31250000       0.12500000       0.37500000 </v>
   <v>      -0.25000000       0.12500000       0.37500000 </v>
   <v>       0.00000000       0.18750000       0.37500000 </v>
   <v>       0.06250000       0.18750000       0.37500000 </v>
   <v>       0.12500000       0.18750000       0.37500000 </v>
   <v>       0.18750000       0.18750000       0.37500000 </v>
   <v>       0.25000000       0.18750000       0.37500000 </v>
   <v>       0.31250000       0.18750000       0.37500000 </v>
   <v>       0.37500000       0.18750000       0.37500000 </v>
   <v>       0.43750000       0.18750000       0.37500000 </v>
   <v>       0.50000000       0.18750000       0.37500000 </v>
   <v>      -0.43750000       0.18750000       0.37500000 </v>
   <v>      -0.37500000       0.18750000       0.37500000 </v>
   <v>       0.00000000       0.25000000       0.37500000 </v>
   <v>       0.06250000       0.25000000       0.37500000 </v>
   <v>       0.12500000       0.25000000       0.37500000 </v>
   <v>       0.18750000       0.25000000       0.37500000 </v>
   <v>       0.25000000       0.25000000       0.37500000 </v>
   <v>       0.31250000       0.25000000       0.37500000 </v>
   <v>       0.37500000       0.25000000       0.37500000 </v>
   <v>       0.43750000       0.25000000       0.37500000 </v>
   <v>       0.50000000       0.25000000       0.37500000 </v>
   <v>       0.00000000       0.31250000       0.37500000 </v>
   <v>       0.06250000       0.31250000       0.37500000 </v>
   <v>       0.12500000       0.31250000       0.37500000 </v>
   <v>       0.18750000       0.31250000       0.37500000 </v>
   <v>       0.25000000       0.31250000       0.37500000 </v>
   <v>       0.31250000       0.31250000       0.37500000 </v>
   <v>       0.37500000       0.31250000       0.37500000 </v>
   <v>       0.00000000       0.37500000       0.37500000 </v>
   <v>       0.06250000       0.37500000       0.37500000 </v>
   <v>       0.12500000       0.37500000       0.37500000 </v>
   <v>       0.18750000       0.37500000       0.37500000 </v>
   <v>       0.25000000       0.37500000       0.37500000 </v>
   <v>       0.00000000       0.43750000       0.37500000 </v>
   <v>       0.06250000       0.43750000       0.37500000 </v>
   <v>       0.12500000       0.43750000       0.37500000 </v>
   <v>       0.00000000       0.50000000       0.37500000 </v>
   <v>       0.00000000       0.00000000       0.43750000 </v>
   <v>       0.06250000       0.00000000       0.43750000 </v>
   <v>       0.12500000       0.00000000       0.43750000 </v>
   <v>       0.18750000      -0.00000000       0.43750000 </v>
   <v>       0.25000000       0.00000000       0.43750000 </v>
   <v>       0.31250000      -0.00000000       0.43750000 </v>
   <v>       0.37500000      -0.00000000       0.43750000 </v>
   <v>       0.43750000      -0.00000000       0.43750000 </v>
   <v>       0.50000000       0.00000000       0.43750000 </v>
   <v>       0.00000000       0.06250000       0.43750000 </v>
   <v>       0.06250000       0.06250000       0.43750000 </v>
   <v>       0.12500000       0.06250000       0.43750000 </v>
   <v>       0.18750000       0.06250000       0.43750000 </v>
   <v>       0.25000000       0.06250000       0.43750000 </v>
   <v>       0.31250000       0.06250000       0.43750000 </v>
   <v>       0.37500000       0.06250000       0.43750000 </v>
   <v>       0.43750000       0.06250000       0.43750000 </v>
   <v>       0.50000000       0.06250000       0.43750000 </v>
   <v>      -0.43750000       0.06250000       0.43750000 </v>
   <v>      -0.37500000       0.06250000       0.43750000 </v>
   <v>      -0.31250000       0.06250000       0.43750000 </v>
   <v>      -0.25000000       0.06250000       0.43750000 </v>
   <v>      -0.18750000       0.06250000       0.43750000 </v>
   <v>      -0.12500000       0.06250000       0.43750000 </v>
   <v>       0.00000000       0.12500000       0.43750000 </v>
   <v>       0.06250000       0.12500000       0.43750000 </v>
   <v>       0.12500000       0.12500000       0.43750000 </v>
   <v>       0.18750000       0.12500000       0.43750000 </v>
   <v>       0.25000000       0.12500000       0.43750000 </v>
   <v>       0.31250000       0.12500000       0.43750000 </v>
   <v>       0.37500000       0.12500000       0.43750000 </v>
   <v>       0.43750000       0.12500000       0.43750000 </v>
   <v>       0.50000000       0.12500000       0.43750000 </v>
   <v>      -0.43750000       0.12500000       0.43750000 </v>
   <v>      -0.37500000       0.12500000       0.43750000 </v>
   <v>      -0.31250000       0.12500000       0.43750000 </v>
   <v>      -0.25000000       0.12500000       0.43750000 </v>
   <v>       0.00000000       0.18750000       0.43750000 </v>
   <v>       0.06250000       0.18750000       0.43750000 </v>
   <v>       0.12500000       0.18750000       0.43750000 </v>
   <v>       0.18750000       0.18750000       0.43750000 </v>
   <v>       0.25000000       0.18750000       0.43750000 </v>
   <v>       0.31250000       0.18750000       0.43750000 </v>
   <v>       0.37500000       0.18750000       0.43750000 </v>
   <v>       0.43750000       0.18750000       0.43750000 </v>
   <v>       0.50000000       0.18750000       0.43750000 </v>
   <v>      -0.43750000       0.18750000       0.43750000 </v>
   <v>      -0.37500000       0.18750000       0.43750000 </v>
   <v>       0.00000000       0.25000000       0.43750000 </v>
   <v>       0.06250000       0.25000000       0.43750000 </v>
   <v>       0.12500000       0.25000000       0.43750000 </v>
   <v>       0.18750000       0.25000000       0.43750000 </v>
   <v>       0.25000000       0.25000000       0.43750000 </v>
   <v>       0.31250000       0.25000000       0.43750000 </v>
   <v>       0.37500000       0.25000000       0.43750000 </v>
   <v>       0.43750000       0.25000000       0.43750000 </v>
   <v>       0.50000000       0.25000000       0.43750000 </v>
   <v>       0.00000000       0.31250000       0.43750000 </v>
   <v>       0.06250000       0.31250000       0.43750000 </v>
   <v>       0.12500000       0.31250000       0.43750000 </v>
   <v>       0.18750000       0.31250000       0.43750000 </v>
   <v>       0.25000000       0.31250000       0.43750000 </v>
   <v>       0.31250000       0.31250000       0.43750000 </v>
   <v>       0.37500000       0.31250000       0.43750000 </v>
   <v>       0.00000000       0.37500000       0.43750000 </v>
   <v>       0.06250000       0.37500000       0.43750000 </v>
   <v>       0.12500000       0.37500000       0.43750000 </v>
   <v>       0.18750000       0.37500000       0.43750000 </v>
   <v>       0.25000000       0.37500000       0.43750000 </v>
   <v>       0.00000000       0.43750000       0.43750000 </v>
   <v>       0.06250000       0.43750000       0.43750000 </v>
   <v>       0.12500000       0.43750000       0.43750000 </v>
   <v>       0.00000000       0.50000000       0.43750000 </v>
   <v>       0.00000000       0.00000000       0.50000000 </v>
   <v>       0.06250000       0.00000000       0.50000000 </v>
   <v>       0.12500000       0.00000000       0.50000000 </v>
   <v>       0.18750000      -0.00000000       0.50000000 </v>
   <v>       0.25000000       0.00000000       0.50000000 </v>
   <v>       0.31250000      -0.00000000       0.50000000 </v>
   <v>       0.37500000      -0.00000000       0.50000000 </v>
   <v>       0.43750000      -0.00000000       0.50000000 </v>
   <v>       0.50000000       0.00000000       0.50000000 </v>
   <v>       0.00000000       0.06250000       0.50000000 </v>
   <v>       0.06250000       0.06250000       0.50000000 </v>
   <v>       0.12500000       0.06250000       0.50000000 </v>
   <v>       0.18750000       0.06250000       0.50000000 </v>
   <v>       0.25000000       0.06250000       0.50000000 </v>
   <v>       0.31250000       0.06250000       0.50000000 </v>
   <v>       0.37500000       0.06250000       0.50000000 </v>
   <v>       0.43750000       0.06250000       0.50000000 </v>
   <v>       0.50000000       0.06250000       0.50000000 </v>
   <v>      -0.43750000       0.06250000       0.50000000 </v>
   <v>      -0.37500000       0.06250000       0.50000000 </v>
   <v>      -0.31250000       0.06250000       0.50000000 </v>
   <v>      -0.25000000       0.06250000       0.50000000 </v>
   <v>      -0.18750000       0.06250000       0.50000000 </v>
   <v>      -0.12500000       0.06250000       0.50000000 </v>
   <v>       0.00000000       0.12500000       0.50000000 </v>
   <v>       0.06250000       0.12500000       0.50000000 </v>
   <v>       0.12500000       0.12500000       0.50000000 </v>
   <v>       0.18750000       0.12500000       0.50000000 </v>
   <v>       0.25000000       0.12500000       0.50000000 </v>
   <v>       0.31250000       0.12500000       0.50000000 </v>
   <v>       0.37500000       0.12500000       0.50000000 </v>
   <v>       0.43750000       0.12500000       0.50000000 </v>
   <v>       0.50000000       0.12500000       0.50000000 </v>
   <v>      -0.43750000       0.12500000       0.50000000 </v>
   <v>      -0.37500000       0.12500000       0.50000000 </v>
   <v>      -0.31250000       0.12500000       0.50000000 </v>
   <v>      -0.25000000       0.12500000       0.50000000 </v>
   <v>       0.00000000       0.18750000       0.50000000 </v>
   <v>       0.06250000       0.18750000       0.50000000 </v>
   <v>       0.12500000       0.18750000       0.50000000 </v>
   <v>       0.18750000       0.18750000       0.50000000 </v>
   <v>       0.25000000       0.18750000       0.50000000 </v>
   <v>       0.31250000       0.18750000       0.50000000 </v>
   <v>       0.37500000       0.18750000       0.50000000 </v>
   <v>       0.43750000       0.18750000       0.50000000 </v>
   <v>       0.50000000       0.18750000       0.50000000 </v>
   <v>      -0.43750000       0.18750000       0.50000000 </v>
   <v>      -0.37500000       0.18750000       0.50000000 </v>
   <v>       0.00000000       0.25000000       0.50000000 </v>
   <v>       0.06250000       0.25000000       0.50000000 </v>
   <v>       0.12500000       0.25000000       0.50000000 </v>
   <v>       0.18750000       0.25000000       0.50000000 </v>
   <v>       0.25000000       0.25000000       0.50000000 </v>
   <v>       0.31250000       0.25000000       0.50000000 </v>
   <v>       0.37500000       0.25000000       0.50000000 </v>
   <v>       0.43750000       0.25000000       0.50000000 </v>
   <v>       0.50000000       0.25000000       0.50000000 </v>
   <v>       0.00000000       0.31250000       0.50000000 </v>
   <v>       0.06250000       0.31250000       0.50000000 </v>
   <v>       0.12500000       0.31250000       0.50000000 </v>
   <v>       0.18750000       0.31250000       0.50000000 </v>
   <v>       0.25000000       0.31250000       0.50000000 </v>
   <v>       0.31250000       0.31250000       0.50000000 </v>
   <v>       0.37500000       0.31250000       0.50000000 </v>
   <v>       0.00000000       0.37500000       0.50000000 </v>
   <v>       0.06250000       0.37500000       0.50000000 </v>
   <v>       0.12500000       0.37500000       0.50000000 </v>
   <v>       0.18750000       0.37500000       0.50000000 </v>
   <v>       0.25000000       0.37500000       0.50000000 </v>
   <v>       0.00000000       0.43750000       0.50000000 </v>
   <v>       0.06250000       0.43750000       0.50000000 </v>
   <v>       0.12500000       0.43750000       0.50000000 </v>
   <v>       0.00000000       0.50000000       0.50000000 </v>
  </varray>
  <varray name="weights" >
   <v>       0.00024414 </v>
   <v>       0.00097656 </v>
   <v>       0.00097656 </v>
   <v>       0.00097656 </v>
   <v>       0.00097656 </v>
   <v>       0.00097656 </v>
   <v>       0.00097656 </v>
   <v>       0.00097656 </v>
   <v>       0.00048828 </v>
   <v>       0.00048828 </v>
   <v>       0.00097656 </v>
   <v>       0.00097656 </v>
   <v>       0.00097656 </v>
   <v>       0.00097656 </v>
   <v>       0.00097656 </v>
   <v>       0.00097656 </v>
   <v>       0.00097656 </v>
   <v>       0.00097656 </v>
   <v>       0.00097656 </v>
   <v>       0.00097656 </v>
   <v>       0.00097656 </v>
   <v>       0.00097656 </v>
   <v>       0.00097656 </v>
   <v>       0.00048828 </v>
   <v>       0.00048828 </v>
   <v>       0.00097656 </v>
   <v>       0.00097656 </v>
   <v>       0.00097656 </v>
   <v>       0.00097656 </v>
   <v>       0.00097656 </v>
   <v>       0.00097656 </v>
   <v>       0.00097656 </v>
   <v>       0.00097656 </v>
   <v>       0.00097656 </v>
   <v>       0.00097656 </v>
   <v>       0.00097656 </v>
   <v>       0.00048828 </v>
   <v>       0.00048828 </v>
   <v>       0.00097656 </v>
   <v>       0.00097656 </v>
   <v>       0.00097656 </v>
   <v>       0.00097656 </v>
   <v>       0.00097656 </v>
   <v>       0.00097656 </v>
   <v>       0.00097656 </v>
   <v>       0.00097656 </v>
   <v>       0.00097656 </v>
   <v>       0.00048828 </v>
   <v>       0.00048828 </v>
   <v>       0.00097656 </v>
   <v>       0.00097656 </v>
   <v>       0.00097656 </v>
   <v>       0.00097656 </v>
   <v>       0.00097656 </v>
   <v>       0.00097656 </v>
   <v>       0.00097656 </v>
   <v>       0.00048828 </v>
   <v>       0.00048828 </v>
   <v>       0.00097656 </v>
   <v>       0.00097656 </v>
   <v>       0.00097656 </v>
   <v>       0.00097656 </v>
   <v>       0.00097656 </v>
   <v>       0.00048828 </v>
   <v>       0.00048828 </v>
   <v>       0.00097656 </v>
   <v>       0.00097656 </v>
   <v>       0.00097656 </v>
   <v>       0.00048828 </v>
   <v>       0.00048828 </v>
   <v>       0.00097656 </v>
   <v>       0.00048828 </v>
   <v>       0.00024414 </v>
   <v>       0.00048828 </v>
   <v>       0.00195312 </v>
   <v>       0.00195312 </v>
   <v>       0.00195312 </v>
   <v>       0.00195312 </v>
   <v>       0.00195312 </v>
   <v>       0.00195312 </v>
   <v>       0.00195312 </v>
   <v>       0.00097656 </v>
   <v>       0.00097656 </v>
   <v>       0.00195312 </v>
   <v>       0.00195312 </v>
   <v>       0.00195312 </v>
   <v>       0.00195312 </v>
   <v>       0.00195312 </v>
   <v>       0.00195312 </v>
   <v>       0.00195312 </v>
   <v>       0.00195312 </v>
   <v>       0.00195312 </v>
   <v>       0.00195312 </v>
   <v>       0.00195312 </v>
   <v>       0.00195312 </v>
   <v>       0.00195312 </v>
   <v>       0.00097656 </v>
   <v>       0.00097656 </v>
   <v>       0.00195312 </v>
   <v>       0.00195312 </v>
   <v>       0.00195312 </v>
   <v>       0.00195312 </v>
   <v>       0.00195312 </v>
   <v>       0.00195312 </v>
   <v>       0.00195312 </v>
   <v>       0.00195312 </v>
   <v>       0.00195312 </v>
   <v>       0.00195312 </v>
   <v>       0.00195312 </v>
   <v>       0.00097656 </v>
   <v>       0.00097656 </v>
   <v>       0.00195312 </v>
   <v>       0.00195312 </v>
   <v>       0.00195312 </v>
   <v>       0.00195312 </v>
   <v>       0.00195312 </v>
   <v>       0.00195312 </v>
   <v>       0.00195312 </v>
   <v>       0.00195312 </v>
   <v>       0.00195312 </v>
   <v>       0.00097656 </v>
   <v>       0.00097656 </v>
   <v>       0.00195312 </v>
   <v>       0.00195312 </v>
   <v>       0.00195312 </v>
   <v>       0.00195312 </v>
   <v>       0.00195312 </v>
   <v>       0.00195312 </v>
   <v>       0.00195312 </v>
   <v>       0.00097656 </v>
   <v>       0.00097656 </v>
   <v>       0.00195312 </v>
   <v>       0.00195312 </v>
   <v>       0.00195312 </v>
   <v>       0.00195312 </v>
   <v>       0.00195312 </v>
   <v>       0.00097656 </v>
   <v>       0.00097656 </v>
   <v>       0.00195312 </v>
   <v>       0.00195312 </v>
   <v>       0.00195312 </v>
   <v>       0.00097656 </v>
   <v>       0.00097656 </v>
   <v>       0.00195312 </v>
   <v>       0.00097656 </v>
   <v>       0.00048828 </v>
   <v>       0.00048828 </v>
   <v>       0.00195312 </v>
   <v>       0.00195312 </v>
   <v>       0.00195312 </v>
   <v>       0.00195312 </v>
   <v>       0.00195312 </v>
   <v>       0.00195312 </v>
   <v>       0.00195312 </v>
   <v>       0.00097656 </v>
   <v>       0.00097656 </v>
   <v>       0.00195312 </v>
   <v>       0.00195312 </v>
   <v>       0.00195312 </v>
   <v>       0.00195312 </v>
   <v>       0.00195312 </v>
   <v>       0.00195312 </v>
   <v>       0.00195312 </v>
   <v>       0.00195312 </v>
   <v>       0.00195312 </v>
   <v>       0.00195312 </v>
   <v>       0.00195312 </v>
   <v>       0.00195312 </v>
   <v>       0.00195312 </v>
   <v>       0.00097656 </v>
   <v>       0.00097656 </v>
   <v>       0.00195312 </v>
   <v>       0.00195312 </v>
   <v>       0.00195312 </v>
   <v>       0.00195312 </v>
   <v>       0.00195312 </v>
   <v>       0.00195312 </v>
   <v>       0.00195312 </v>
   <v>       0.00195312 </v>
   <v>       0.00195312 </v>
   <v>       0.00195312 </v>
   <v>       0.00195312 </v>
   <v>       0.00097656 </v>
   <v>       0.00097656 </v>
   <v>       0.00195312 </v>
   <v>       0.00195312 </v>
   <v>       0.00195312 </v>
   <v>       0.00195312 </v>
   <v>       0.00195312 </v>
   <v>       0.00195312 </v>
   <v>       0.00195312 </v>
   <v>       0.00195312 </v>
   <v>       0.00195312 </v>
   <v>       0.00097656 </v>
   <v>       0.00097656 </v>
   <v>       0.00195312 </v>
   <v>       0.00195312 </v>
   <v>       0.00195312 </v>
   <v>       0.00195312 </v>
   <v>       0.00195312 </v>
   <v>       0.00195312 </v>
   <v>       0.00195312 </v>
   <v>       0.00097656 </v>
   <v>       0.00097656 </v>
   <v>       0.00195312 </v>
   <v>       0.00195312 </v>
   <v>       0.00195312 </v>
   <v>       0.00195312 </v>
   <v>       0.00195312 </v>
   <v>       0.00097656 </v>
   <v>       0.00097656 </v>
   <v>       0.00195312 </v>
   <v>       0.00195312 </v>
   <v>       0.00195312 </v>
   <v>       0.00097656 </v>
   <v>       0.00097656 </v>
   <v>       0.00195312 </v>
   <v>       0.00097656 </v>
   <v>       0.00048828 </v>
   <v>       0.00048828 </v>
   <v>       0.00195312 </v>
   <v>       0.00195312 </v>
   <v>       0.00195312 </v>
   <v>       0.00195312 </v>
   <v>       0.00195312 </v>
   <v>       0.00195312 </v>
   <v>       0.00195312 </v>
   <v>       0.00097656 </v>
   <v>       0.00097656 </v>
   <v>       0.00195312 </v>
   <v>       0.00195312 </v>
   <v>       0.00195312 </v>
   <v>       0.00195312 </v>
   <v>       0.00195312 </v>
   <v>       0.00195312 </v>
   <v>       0.00195312 </v>
   <v>       0.00195312 </v>
   <v>       0.00195312 </v>
   <v>       0.00195312 </v>
   <v>       0.00195312 </v>
   <v>       0.00195312 </v>
   <v>       0.00195312 </v>
   <v>       0.00097656 </v>
   <v>       0.00097656 </v>
   <v>       0.00195312 </v>
   <v>       0.00195312 </v>
   <v>       0.00195312 </v>
   <v>       0.00195312 </v>
   <v>       0.00195312 </v>
   <v>       0.00195312 </v>
   <v>       0.00195312 </v>
   <v>       0.00195312 </v>
   <v>       0.00195312 </v>
   <v>       0.00195312 </v>
   <v>       0.00195312 </v>
   <v>       0.00097656 </v>
   <v>       0.00097656 </v>
   <v>       0.00195312 </v>
   <v>       0.00195312 </v>
   <v>       0.00195312 </v>
   <v>       0.00195312 </v>
   <v>       0.00195312 </v>
   <v>       0.00195312 </v>
   <v>       0.00195312 </v>
   <v>       0.00195312 </v>
   <v>       0.00195312 </v>
   <v>       0.00097656 </v>
   <v>       0.00097656 </v>
   <v>       0.00195312 </v>
   <v>       0.00195312 </v>
   <v>       0.00195312 </v>
   <v>       0.00195312 </v>
   <v>       0.00195312 </v>
   <v>       0.00195312 </v>
   <v>       0.00195312 </v>
   <v>       0.00097656 </v>
   <v>       0.00097656 </v>
   <v>       0.00195312 </v>
   <v>       0.00195312 </v>
   <v>       0.00195312 </v>
   <v>       0.00195312 </v>
   <v>       0.00195312 </v>
   <v>       0.00097656 </v>
   <v>       0.00097656 </v>
   <v>       0.00195312 </v>
   <v>       0.00195312 </v>
   <v>       0.00195312 </v>
   <v>       0.00097656 </v>
   <v>       0.00097656 </v>
   <v>       0.00195312 </v>
   <v>       0.00097656 </v>
   <v>       0.00048828 </v>
   <v>       0.00048828 </v>
   <v>       0.00195312 </v>
   <v>       0.00195312 </v>
   <v>       0.00195312 </v>
   <v>       0.00195312 </v>
   <v>       0.00195312 </v>
   <v>       0.00195312 </v>
   <v>       0.00195312 </v>
   <v>       0.00097656 </v>
   <v>       0.00097656 </v>
   <v>       0.00195312 </v>
   <v>       0.00195312 </v>
   <v>       0.00195312 </v>
   <v>       0.00195312 </v>
   <v>       0.00195312 </v>
   <v>       0.00195312 </v>
   <v>       0.00195312 </v>
   <v>       0.00195312 </v>
   <v>       0.00195312 </v>
   <v>       0.00195312 </v>
   <v>       0.00195312 </v>
   <v>       0.00195312 </v>
   <v>       0.00195312 </v>
   <v>       0.00097656 </v>
   <v>       0.00097656 </v>
   <v>       0.00195312 </v>
   <v>       0.00195312 </v>
   <v>       0.00195312 </v>
   <v>       0.00195312 </v>
   <v>       0.00195312 </v>
   <v>       0.00195312 </v>
   <v>       0.00195312 </v>
   <v>       0.00195312 </v>
   <v>       0.00195312 </v>
   <v>       0.00195312 </v>
   <v>       0.00195312 </v>
   <v>       0.00097656 </v>
   <v>       0.00097656 </v>
   <v>       0.00195312 </v>
   <v>       0.00195312 </v>
   <v>       0.00195312 </v>
   <v>       0.00195312 </v>
   <v>       0.00195312 </v>
   <v>       0.00195312 </v>
   <v>       0.00195312 </v>
   <v>       0.00195312 </v>
   <v>       0.00195312 </v>
   <v>       0.00097656 </v>
   <v>       0.00097656 </v>
   <v>       0.00195312 </v>
   <v>       0.00195312 </v>
   <v>       0.00195312 </v>
   <v>       0.00195312 </v>
   <v>       0.00195312 </v>
   <v>       0.00195312 </v>
   <v>       0.00195312 </v>
   <v>       0.00097656 </v>
   <v>       0.00097656 </v>
   <v>       0.00195312 </v>
   <v>       0.00195312 </v>
   <v>       0.00195312 </v>
   <v>       0.00195312 </v>
   <v>       0.00195312 </v>
   <v>       0.00097656 </v>
   <v>       0.00097656 </v>
   <v>       0.00195312 </v>
   <v>       0.00195312 </v>
   <v>       0.00195312 </v>
   <v>       0.00097656 </v>
   <v>       0.00097656 </v>
   <v>       0.00195312 </v>
   <v>       0.00097656 </v>
   <v>       0.00048828 </v>
   <v>       0.00048828 </v>
   <v>       0.00195312 </v>
   <v>       0.00195312 </v>
   <v>       0.00195312 </v>
   <v>       0.00195312 </v>
   <v>       0.00195312 </v>
   <v>       0.00195312 </v>
   <v>       0.00195312 </v>
   <v>       0.00097656 </v>
   <v>       0.00097656 </v>
   <v>       0.00195312 </v>
   <v>       0.00195312 </v>
   <v>       0.00195312 </v>
   <v>       0.00195312 </v>
   <v>       0.00195312 </v>
   <v>       0.00195312 </v>
   <v>       0.00195312 </v>
   <v>       0.00195312 </v>
   <v>       0.00195312 </v>
   <v>       0.00195312 </v>
   <v>       0.00195312 </v>
   <v>       0.00195312 </v>
   <v>       0.00195312 </v>
   <v>       0.00097656 </v>
   <v>       0.00097656 </v>
   <v>       0.00195312 </v>
   <v>       0.00195312 </v>
   <v>       0.00195312 </v>
   <v>       0.00195312 </v>
   <v>       0.00195312 </v>
   <v>       0.00195312 </v>
   <v>       0.00195312 </v>
   <v>       0.00195312 </v>
   <v>       0.00195312 </v>
   <v>       0.00195312 </v>
   <v>       0.00195312 </v>
   <v>       0.00097656 </v>
   <v>       0.00097656 </v>
   <v>       0.00195312 </v>
   <v>       0.00195312 </v>
   <v>       0.00195312 </v>
   <v>       0.00195312 </v>
   <v>       0.00195312 </v>
   <v>       0.00195312 </v>
   <v>       0.00195312 </v>
   <v>       0.00195312 </v>
   <v>       0.00195312 </v>
   <v>       0.00097656 </v>
   <v>       0.00097656 </v>
   <v>       0.00195312 </v>
   <v>       0.00195312 </v>
   <v>       0.00195312 </v>
   <v>       0.00195312 </v>
   <v>       0.00195312 </v>
   <v>       0.00195312 </v>
   <v>       0.00195312 </v>
   <v>       0.00097656 </v>
   <v>       0.00097656 </v>
   <v>       0.00195312 </v>
   <v>       0.00195312 </v>
   <v>       0.00195312 </v>
   <v>       0.00195312 </v>
   <v>       0.00195312 </v>
   <v>       0.00097656 </v>
   <v>       0.00097656 </v>
   <v>       0.00195312 </v>
   <v>       0.00195312 </v>
   <v>       0.00195312 </v>
   <v>       0.00097656 </v>
   <v>       0.00097656 </v>
   <v>       0.00195312 </v>
   <v>       0.00097656 </v>
   <v>       0.00048828 </v>
   <v>       0.00048828 </v>
   <v>       0.00195312 </v>
   <v>       0.00195312 </v>
   <v>       0.00195312 </v>
   <v>       0.00195312 </v>
   <v>       0.00195312 </v>
   <v>       0.00195312 </v>
   <v>       0.00195312 </v>
   <v>       0.00097656 </v>
   <v>       0.00097656 </v>
   <v>       0.00195312 </v>
   <v>       0.00195312 </v>
   <v>       0.00195312 </v>
   <v>       0.00195312 </v>
   <v>       0.00195312 </v>
   <v>       0.00195312 </v>
   <v>       0.00195312 </v>
   <v>       0.00195312 </v>
   <v>       0.00195312 </v>
   <v>       0.00195312 </v>
   <v>       0.00195312 </v>
   <v>       0.00195312 </v>
   <v>       0.00195312 </v>
   <v>       0.00097656 </v>
   <v>       0.00097656 </v>
   <v>       0.00195312 </v>
   <v>       0.00195312 </v>
   <v>       0.00195312 </v>
   <v>       0.00195312 </v>
   <v>       0.00195312 </v>
   <v>       0.00195312 </v>
   <v>       0.00195312 </v>
   <v>       0.00195312 </v>
   <v>       0.00195312 </v>
   <v>       0.00195312 </v>
   <v>       0.00195312 </v>
   <v>       0.00097656 </v>
   <v>       0.00097656 </v>
   <v>       0.00195312 </v>
   <v>       0.00195312 </v>
   <v>       0.00195312 </v>
   <v>       0.00195312 </v>
   <v>       0.00195312 </v>
   <v>       0.00195312 </v>
   <v>       0.00195312 </v>
   <v>       0.00195312 </v>
   <v>       0.00195312 </v>
   <v>       0.00097656 </v>
   <v>       0.00097656 </v>
   <v>       0.00195312 </v>
   <v>       0.00195312 </v>
   <v>       0.00195312 </v>
   <v>       0.00195312 </v>
   <v>       0.00195312 </v>
   <v>       0.00195312 </v>
   <v>       0.00195312 </v>
   <v>       0.00097656 </v>
   <v>       0.00097656 </v>
   <v>       0.00195312 </v>
   <v>       0.00195312 </v>
   <v>       0.00195312 </v>
   <v>       0.00195312 </v>
   <v>       0.00195312 </v>
   <v>       0.00097656 </v>
   <v>       0.00097656 </v>
   <v>       0.00195312 </v>
   <v>       0.00195312 </v>
   <v>       0.00195312 </v>
   <v>       0.00097656 </v>
   <v>       0.00097656 </v>
   <v>       0.00195312 </v>
   <v>       0.00097656 </v>
   <v>       0.00048828 </v>
   <v>       0.00048828 </v>
   <v>       0.00195312 </v>
   <v>       0.00195312 </v>
   <v>       0.00195312 </v>
   <v>       0.00195312 </v>
   <v>       0.00195312 </v>
   <v>       0.00195312 </v>
   <v>       0.00195312 </v>
   <v>       0.00097656 </v>
   <v>       0.00097656 </v>
   <v>       0.00195312 </v>
   <v>       0.00195312 </v>
   <v>       0.00195312 </v>
   <v>       0.00195312 </v>
   <v>       0.00195312 </v>
   <v>       0.00195312 </v>
   <v>       0.00195312 </v>
   <v>       0.00195312 </v>
   <v>       0.00195312 </v>
   <v>       0.00195312 </v>
   <v>       0.00195312 </v>
   <v>       0.00195312 </v>
   <v>       0.00195312 </v>
   <v>       0.00097656 </v>
   <v>       0.00097656 </v>
   <v>       0.00195312 </v>
   <v>       0.00195312 </v>
   <v>       0.00195312 </v>
   <v>       0.00195312 </v>
   <v>       0.00195312 </v>
   <v>       0.00195312 </v>
   <v>       0.00195312 </v>
   <v>       0.00195312 </v>
   <v>       0.00195312 </v>
   <v>       0.00195312 </v>
   <v>       0.00195312 </v>
   <v>       0.00097656 </v>
   <v>       0.00097656 </v>
   <v>       0.00195312 </v>
   <v>       0.00195312 </v>
   <v>       0.00195312 </v>
   <v>       0.00195312 </v>
   <v>       0.00195312 </v>
   <v>       0.00195312 </v>
   <v>       0.00195312 </v>
   <v>       0.00195312 </v>
   <v>       0.00195312 </v>
   <v>       0.00097656 </v>
   <v>       0.00097656 </v>
   <v>       0.00195312 </v>
   <v>       0.00195312 </v>
   <v>       0.00195312 </v>
   <v>       0.00195312 </v>
   <v>       0.00195312 </v>
   <v>       0.00195312 </v>
   <v>       0.00195312 </v>
   <v>       0.00097656 </v>
   <v>       0.00097656 </v>
   <v>       0.00195312 </v>
   <v>       0.00195312 </v>
   <v>       0.00195312 </v>
   <v>       0.00195312 </v>
   <v>       0.00195312 </v>
   <v>       0.00097656 </v>
   <v>       0.00097656 </v>
   <v>       0.00195312 </v>
   <v>       0.00195312 </v>
   <v>       0.00195312 </v>
   <v>       0.00097656 </v>
   <v>       0.00097656 </v>
   <v>       0.00195312 </v>
   <v>       0.00097656 </v>
   <v>       0.00048828 </v>
   <v>       0.00024414 </v>
   <v>       0.00097656 </v>
   <v>       0.00097656 </v>
   <v>       0.00097656 </v>
   <v>       0.00097656 </v>
   <v>       0.00097656 </v>
   <v>       0.00097656 </v>
   <v>       0.00097656 </v>
   <v>       0.00048828 </v>
   <v>       0.00048828 </v>
   <v>       0.00097656 </v>
   <v>       0.00097656 </v>
   <v>       0.00097656 </v>
   <v>       0.00097656 </v>
   <v>       0.00097656 </v>
   <v>       0.00097656 </v>
   <v>       0.00097656 </v>
   <v>       0.00097656 </v>
   <v>       0.00097656 </v>
   <v>       0.00097656 </v>
   <v>       0.00097656 </v>
   <v>       0.00097656 </v>
   <v>       0.00097656 </v>
   <v>       0.00048828 </v>
   <v>       0.00048828 </v>
   <v>       0.00097656 </v>
   <v>       0.00097656 </v>
   <v>       0.00097656 </v>
   <v>       0.00097656 </v>
   <v>       0.00097656 </v>
   <v>       0.00097656 </v>
   <v>       0.00097656 </v>
   <v>       0.00097656 </v>
   <v>       0.00097656 </v>
   <v>       0.00097656 </v>
   <v>       0.00097656 </v>
   <v>       0.00048828 </v>
   <v>       0.00048828 </v>
   <v>       0.00097656 </v>
   <v>       0.00097656 </v>
   <v>       0.00097656 </v>
   <v>       0.00097656 </v>
   <v>       0.00097656 </v>
   <v>       0.00097656 </v>
   <v>       0.00097656 </v>
   <v>       0.00097656 </v>
   <v>       0.00097656 </v>
   <v>       0.00048828 </v>
   <v>       0.00048828 </v>
   <v>       0.00097656 </v>
   <v>       0.00097656 </v>
   <v>       0.00097656 </v>
   <v>       0.00097656 </v>
   <v>       0.00097656 </v>
   <v>       0.00097656 </v>
   <v>       0.00097656 </v>
   <v>       0.00048828 </v>
   <v>       0.00048828 </v>
   <v>       0.00097656 </v>
   <v>       0.00097656 </v>
   <v>       0.00097656 </v>
   <v>       0.00097656 </v>
   <v>       0.00097656 </v>
   <v>       0.00048828 </v>
   <v>       0.00048828 </v>
   <v>       0.00097656 </v>
   <v>       0.00097656 </v>
   <v>       0.00097656 </v>
   <v>       0.00048828 </v>
   <v>       0.00048828 </v>
   <v>       0.00097656 </v>
   <v>       0.00048828 </v>
   <v>       0.00024414 </v>
  </varray>
 </kpoints>
 <parameters>
  <separator name="general" >
   <i type="string" name="SYSTEM">unknown system</i>
   <i type="logical" name="LCOMPAT"> F  </i>
  </separator>
  <separator name="electronic" >
   <i type="string" name="PREC">accura</i>
   <i name="ENMAX">    600.00000000</i>
   <i name="ENAUG">    535.51400000</i>
   <i name="EDIFF">      0.00000100</i>
   <i type="int" name="IALGO">    48</i>
   <i type="int" name="IWAVPR">    11</i>
   <i type="int" name="NBANDS">    12</i>
   <i name="NELECT">     10.00000000</i>
   <i type="int" name="TURBO">     0</i>
   <i type="int" name="IRESTART">     0</i>
   <i type="int" name="NREBOOT">     0</i>
   <i type="int" name="NMIN">     0</i>
   <i name="EREF">      0.00000000</i>
   <separator name="electronic smearing" >
    <i type="int" name="ISMEAR">     0</i>
    <i name="SIGMA">      0.05000000</i>
    <i name="KSPACING">      0.50000000</i>
    <i type="logical" name="KGAMMA"> T  </i>
   </separator>
   <separator name="electronic projectors" >
    <i type="logical" name="LREAL"> F  </i>
    <v name="ROPT">      0.00000000      0.00000000</v>
    <i type="int" name="LMAXPAW">  -100</i>
    <i type="int" name="LMAXMIX">     2</i>
    <i type="logical" name="NLSPLINE"> F  </i>
   </separator>
   <separator name="electronic startup" >
    <i type="int" name="ISTART">     0</i>
    <i type="int" name="ICHARG">     2</i>
    <i type="int" name="INIWAV">     1</i>
   </separator>
   <separator name="electronic spin" >
    <i type="int" name="ISPIN">     1</i>
    <i type="logical" name="LNONCOLLINEAR"> F  </i>
    <v name="MAGMOM">      1.00000000      1.00000000      1.00000000</v>
    <i name="NUPDOWN">     -1.00000000</i>
    <i type="logical" name="LSORBIT"> F  </i>
    <v name="SAXIS">      0.00000000      0.00000000      1.00000000</v>
    <i type="logical" name="LSPIRAL"> F  </i>
    <v name="QSPIRAL">      0.00000000      0.00000000      0.00000000</v>
    <i type="logical" name="LZEROZ"> F  </i>
   </separator>
   <separator name="electronic exchange-correlation" >
    <i type="logical" name="LASPH"> F  </i>
    <i type="logical" name="LMETAGGA"> F  </i>
   </separator>
   <separator name="electronic convergence" >
    <i type="int" name="NELM">    60</i>
    <i type="int" name="NELMDL">   -12</i>
    <i type="int" name="NELMIN">     2</i>
    <i name="ENINI">    600.00000000</i>
    <separator name="electronic convergence detail" >
     <i type="logical" name="LDIAG"> T  </i>
     <i type="logical" name="LSUBROT"> F  </i>
     <i name="WEIMIN">      0.00100000</i>
     <i name="EBREAK">      0.00000002</i>
     <i name="DEPER">      0.30000000</i>
     <i type="int" name="NRMM">     4</i>
     <i name="TIME">      0.40000000</i>
    </separator>
   </separator>
   <separator name="electronic mixer" >
    <i name="AMIX">      0.40000000</i>
    <i name="BMIX">      1.00000000</i>
    <i name="AMIN">      0.10000000</i>
    <i name="AMIX_MAG">      1.60000000</i>
    <i name="BMIX_MAG">      1.00000000</i>
    <separator name="electronic mixer details" >
     <i type="int" name="IMIX">     4</i>
     <i type="logical" name="MIXFIRST"> F  </i>
     <i type="int" name="MAXMIX">   -45</i>
     <i name="WC">    100.00000000</i>
     <i type="int" name="INIMIX">     1</i>
     <i type="int" name="MIXPRE">     1</i>
     <i type="int" name="MREMOVE">     5</i>
    </separator>
   </separator>
   <separator name="electronic dipolcorrection" >
    <i type="logical" name="LDIPOL"> F  </i>
    <i type="logical" name="LMONO"> F  </i>
    <i type="int" name="IDIPOL">     0</i>
    <i name="EPSILON">      1.00000000</i>
    <v name="DIPOL">   -100.00000000   -100.00000000   -100.00000000</v>
    <i name="EFIELD">      0.00000000</i>
   </separator>
  </separator>
  <separator name="grids" >
   <i type="int" name="NGX">    28</i>
   <i type="int" name="NGY">    28</i>
   <i type="int" name="NGZ">    28</i>
   <i type="int" name="NGXF">    56</i>
   <i type="int" name="NGYF">    56</i>
   <i type="int" name="NGZF">    56</i>
   <i type="logical" name="ADDGRID"> F  </i>
  </separator>
  <separator name="ionic" >
   <i type="int" name="NSW">    50</i>
   <i type="int" name="IBRION">     1</i>
   <i type="int" name="MDALGO">     0</i>
   <i type="int" name="ISIF">     2</i>
   <i name="PSTRESS">      0.00000000</i>
   <i name="EDIFFG">      0.00001000</i>
   <i type="int" name="NFREE">     0</i>
   <i name="POTIM">      0.50000000</i>
   <i name="SMASS">     -3.00000000</i>
   <i name="SCALEE">      1.00000000</i>
  </separator>
  <separator name="ionic md" >
   <i name="TEBEG">      0.00010000</i>
   <i name="TEEND">      0.00010000</i>
   <i type="int" name="NBLOCK">     1</i>
   <i type="int" name="KBLOCK">    50</i>
   <i type="int" name="NPACO">   256</i>
   <i name="APACO">     16.00000000</i>
  </separator>
  <separator name="symmetry" >
   <i type="int" name="ISYM">     2</i>
   <i name="SYMPREC">      0.00001000</i>
  </separator>
  <separator name="dos" >
   <i type="int" name="LORBIT">     0</i>
   <v name="RWIGS">     -1.00000000     -1.00000000</v>
   <i type="int" name="NEDOS">   301</i>
   <i name="EMIN">     10.00000000</i>
   <i name="EMAX">    -10.00000000</i>
   <i name="EFERMI">      0.00000000</i>
  </separator>
  <separator name="writing" >
   <i type="int" name="NWRITE">     2</i>
   <i type="logical" name="LWAVE"> F  </i>
   <i type="logical" name="LDOWNSAMPLE"> F  </i>
   <i type="logical" name="LCHARG"> F  </i>
   <i type="logical" name="LPARD"> F  </i>
   <i type="logical" name="LVTOT"> F  </i>
   <i type="logical" name="LVHAR"> F  </i>
   <i type="logical" name="LELF"> F  </i>
   <i type="logical" name="LOPTICS"> F  </i>
   <v name="STM">      0.00000000      0.00000000      0.00000000      0.00000000      0.00000000      0.00000000      0.00000000</v>
  </separator>
  <separator name="performance" >
   <i type="int" name="NPAR">     4</i>
   <i type="int" name="NSIM">     4</i>
   <i type="int" name="NBLK">    -1</i>
   <i type="logical" name="LPLANE"> T  </i>
   <i type="logical" name="LSCALAPACK"> T  </i>
   <i type="logical" name="LSCAAWARE"> F  </i>
   <i type="logical" name="LSCALU"> F  </i>
   <i type="logical" name="LASYNC"> F  </i>
   <i type="logical" name="LORBITALREAL"> F  </i>
  </separator>
  <separator name="miscellaneous" >
   <i type="int" name="IDIOT">     3</i>
   <i type="int" name="ISPECIAL">     0</i>
   <i type="logical" name="LMUSIC"> F  </i>
   <v name="POMASS">     47.88000000     10.81100000</v>
   <v name="DARWINR">      0.00000000      0.00000000</v>
   <v name="DARWINV">      1.00000000      1.00000000</v>
   <i type="logical" name="LCORR"> T  </i>
  </separator>
  <i type="logical" name="GGA_COMPAT"> T  </i>
  <i type="logical" name="LBERRY"> F  </i>
  <i type="int" name="ICORELEVEL">     0</i>
  <i type="logical" name="LDAU"> F  </i>
  <i type="int" name="I_CONSTRAINED_M">     0</i>
  <separator name="electronic exchange-correlation" >
   <i type="string" name="GGA">--</i>
   <i type="int" name="VOSKOWN">     0</i>
   <i type="logical" name="LHFCALC"> F  </i>
   <i type="string" name="PRECFOCK"></i>
   <i type="logical" name="LSYMGRAD"> F  </i>
   <i type="logical" name="LHFONE"> F  </i>
   <i type="logical" name="LRHFCALC"> F  </i>
   <i type="logical" name="LTHOMAS"> F  </i>
   <i type="logical" name="LMODELHF"> F  </i>
   <i name="ENCUT4O">     -1.00000000</i>
   <i type="int" name="EXXOEP">     0</i>
   <i type="int" name="FOURORBIT">     0</i>
   <i name="AEXX">      0.00000000</i>
   <i name="HFALPHA">      0.00000000</i>
   <i name="MCALPHA">      0.00000000</i>
   <i name="ALDAX">      1.00000000</i>
   <i name="AGGAX">      1.00000000</i>
   <i name="ALDAC">      1.00000000</i>
   <i name="AGGAC">      1.00000000</i>
   <i type="int" name="NKREDX">     1</i>
   <i type="int" name="NKREDY">     1</i>
   <i type="int" name="NKREDZ">     1</i>
   <i type="logical" name="SHIFTRED"> F  </i>
   <i type="logical" name="ODDONLY"> F  </i>
   <i type="logical" name="EVENONLY"> F  </i>
   <i type="int" name="LMAXFOCK">     0</i>
   <i type="int" name="NMAXFOCKAE">     0</i>
   <i type="logical" name="LFOCKAEDFT"> F  </i>
   <i name="HFSCREEN">      0.00000000</i>
   <i name="HFSCREENC">      0.00000000</i>
   <i type="int" name="NBANDSGWLOW">     0</i>
  </separator>
  <separator name="vdW DFT" >
   <i type="logical" name="LUSE_VDW"> F  </i>
   <i name="Zab_VDW">     -0.84910000</i>
   <i name="PARAM1">      0.12340000</i>
   <i name="PARAM2">      1.00000000</i>
   <i name="PARAM3">      0.00000000</i>
  </separator>
  <separator name="model GW" >
   <i type="int" name="MODEL_GW">     0</i>
   <i name="MODEL_EPS0">      5.44772689</i>
   <i name="MODEL_ALPHA">      1.00000000</i>
  </separator>
  <separator name="linear response parameters" >
   <i type="logical" name="LEPSILON"> F  </i>
   <i type="logical" name="LRPA"> F  </i>
   <i type="logical" name="LNABLA"> F  </i>
   <i type="logical" name="LVEL"> F  </i>
   <i type="int" name="KINTER">     0</i>
   <i name="CSHIFT">      0.10000000</i>
   <i name="OMEGAMAX">     -1.00000000</i>
   <i name="DEG_THRESHOLD">      0.00200000</i>
   <i name="RTIME">     -0.10000000</i>
   <i name="WPLASMAI">      0.00000000</i>
   <v name="DFIELD">      0.00000000      0.00000000      0.00000000</v>
   <v name="WPLASMA">      0.00000000      0.00000000      0.00000000      0.00000000      0.00000000      0.00000000      0.00000000      0.00000000      0.00000000</v>
  </separator>
  <separator name="orbital magnetization" >
   <i type="logical" name="NUCIND"> F  </i>
   <v name="MAGPOS">      0.00000000      0.00000000      0.00000000</v>
   <i type="logical" name="LNICSALL"> T  </i>
   <i type="logical" name="ORBITALMAG"> F  </i>
   <i type="logical" name="LMAGBLOCH"> F  </i>
   <i type="logical" name="LCHIMAG"> F  </i>
   <i type="logical" name="LGAUGE"> T  </i>
   <i type="int" name="MAGATOM">     0</i>
   <v name="MAGDIPOL">      0.00000000      0.00000000      0.00000000</v>
   <v name="AVECCONST">      0.00000000      0.00000000      0.00000000</v>
  </separator>
  <separator name="response functions" >
   <i type="logical" name="LADDER"> F  </i>
   <i type="logical" name="LRPAFORCE"> F  </i>
   <i type="logical" name="LFXC"> F  </i>
   <i type="logical" name="LHARTREE"> T  </i>
   <i type="int" name="IBSE">     0</i>
   <v type="int" name="KPOINT">    -1     0     0     0</v>
   <i type="logical" name="LTCTE"> F  </i>
   <i type="logical" name="LTETE"> F  </i>
   <i type="logical" name="LTRIPLET"> F  </i>
   <i type="logical" name="LFXCEPS"> F  </i>
   <i type="logical" name="LFXHEG"> F  </i>
   <i type="int" name="NATURALO">     2</i>
   <i type="logical" name="L2ORDER"> F  </i>
   <i type="logical" name="LMP2LT"> F  </i>
   <i type="logical" name="LUSEW"> F  </i>
   <i name="ENCUTGW">     -2.00000000</i>
   <i name="ENCUTGWSOFT">     -2.00000000</i>
   <i name="ENCUTLF">     -1.00000000</i>
   <i type="int" name="LMAXMP2">    -1</i>
   <i name="SCISSOR">      0.00000000</i>
   <i type="int" name="NOMEGA">     0</i>
   <i type="int" name="NOMEGAR">     0</i>
   <i type="int" name="NBANDSGW">    -1</i>
   <i type="int" name="NBANDSO">    -1</i>
   <i type="int" name="NBANDSV">    -1</i>
   <i type="int" name="NELM">     1</i>
   <i type="int" name="NELMHF">     1</i>
   <i type="int" name="DIM">     3</i>
   <i type="int" name="ANTIRES">     0</i>
   <i name="OMEGAMAX">    -30.00000000</i>
   <i name="OMEGAMIN">    -30.00000000</i>
   <i name="OMEGATL">   -200.00000000</i>
   <i type="int" name="OMEGAGRID">   140</i>
   <i name="CSHIFT">     -0.10000000</i>
   <i type="logical" name="SELFENERGY"> F  </i>
   <i type="logical" name="LSPECTRAL"> F  </i>
   <i type="logical" name="LSPECTRALGW"> F  </i>
   <i type="logical" name="LSINGLES"> F  </i>
   <i type="logical" name="LFERMIGW"> F  </i>
   <i type="logical" name="ODDONLYGW"> F  </i>
   <i type="logical" name="EVENONLYGW"> F  </i>
   <i type="int" name="NKREDLFX">     1</i>
   <i type="int" name="NKREDLFY">     1</i>
   <i type="int" name="NKREDLFZ">     1</i>
   <i type="int" name="MAXMEM">  2800</i>
   <i type="int" name="TELESCOPE">     0</i>
   <i type="int" name="TAUPAR">     1</i>
   <i type="int" name="OMEGAPAR">    -1</i>
   <i name="LAMBDA">      1.00000000</i>
  </separator>
  <separator name="External order field" >
   <i name="OFIELD_KAPPA">      0.00000000</i>
   <v name="OFIELD_K">      0.00000000      0.00000000      0.00000000</v>
   <i name="OFIELD_Q6_NEAR">      0.00000000</i>
   <i name="OFIELD_Q6_FAR">      0.00000000</i>
   <i name="OFIELD_A">      0.00000000</i>
  </separator>
 </parameters>
 <atominfo>
  <atoms>       3 </atoms>
  <types>       2 </types>
  <array name="atoms" >
   <dimension dim="1">ion</dimension>
   <field type="string">element</field>
   <field type="int">atomtype</field>
   <set>
    <rc><c>Ti</c><c>   1</c></rc>
    <rc><c>B </c><c>   2</c></rc>
    <rc><c>B </c><c>   2</c></rc>
   </set>
  </array>
  <array name="atomtypes" >
   <dimension dim="1">type</dimension>
   <field type="int">atomspertype</field>
   <field type="string">element</field>
   <field>mass</field>
   <field>valence</field>
   <field type="string">pseudopotential</field>
   <set>
    <rc><c>   1</c><c>Ti</c><c>     47.88000000</c><c>      4.00000000</c><c>  PAW_PBE Ti 08Apr2002                  </c></rc>
    <rc><c>   2</c><c>B </c><c>     10.81100000</c><c>      3.00000000</c><c>  PAW_PBE B 06Sep2000                   </c></rc>
   </set>
  </array>
 </atominfo>
 <structure name="initialpos" >
  <crystal>
   <varray name="basis" >
    <v>       3.21491135       0.00000000       0.00000000 </v>
    <v>      -1.60745567       2.62659896       0.00000000 </v>
    <v>       0.00000000       0.00000000       3.22568951 </v>
   </varray>
   <i name="volume">     27.23863444 </i>
   <varray name="rec_basis" >
    <v>       0.31105057       0.19036024       0.00000000 </v>
    <v>       0.00000000       0.38072047       0.00000000 </v>
    <v>       0.00000000       0.00000000       0.31001124 </v>
   </varray>
  </crystal>
  <varray name="positions" >
   <v>       0.00000000       0.00000000       0.00000000 </v>
   <v>       0.33333333       0.66666667       0.50000000 </v>
   <v>       0.66666667       0.33333333       0.50000000 </v>
  </varray>
 </structure>
 <calculation>
  <scstep>
   <time name="diag">    0.60    0.60</time>
   <time name="diis">    0.47    0.47</time>
   <time name="orth">    0.05    0.05</time>
   <time name="total">    1.14    1.15</time>
   <energy>
    <i name="alphaZ">     49.18367596 </i>
    <i name="ewald">   -327.92932563 </i>
    <i name="hartreedc">     -9.44852799 </i>
    <i name="XCdc">    -22.36749933 </i>
    <i name="pawpsdc">    212.51551635 </i>
    <i name="pawaedc">   -170.34075235 </i>
    <i name="eentropy">     -0.00115201 </i>
    <i name="bandstr">     76.03069660 </i>
    <i name="atom">    237.13190223 </i>
    <i name="e_fr_energy">     44.77453383 </i>
    <i name="e_wo_entrp">     44.77568584 </i>
    <i name="e_0_energy">     44.77510983 </i>
   </energy>
  </scstep>
  <scstep>
   <time name="diag">    0.59    0.60</time>
   <time name="diis">    0.49    0.49</time>
   <time name="orth">    0.05    0.05</time>
   <time name="total">    1.14    1.14</time>
   <energy>
    <i name="e_fr_energy">    -10.31005480 </i>
    <i name="e_wo_entrp">    -10.30867509 </i>
    <i name="e_0_energy">    -10.30936494 </i>
   </energy>
  </scstep>
  <scstep>
   <time name="diag">    0.59    0.59</time>
   <time name="diis">    0.49    0.49</time>
   <time name="orth">    0.05    0.05</time>
   <time name="total">    1.14    1.14</time>
   <energy>
    <i name="e_fr_energy">    -24.15228906 </i>
    <i name="e_wo_entrp">    -24.15169171 </i>
    <i name="e_0_energy">    -24.15199039 </i>
   </energy>
  </scstep>
  <scstep>
   <time name="diag">    0.59    0.59</time>
   <time name="diis">    0.49    0.49</time>
   <time name="orth">    0.05    0.05</time>
   <time name="total">    1.14    1.14</time>
   <energy>
    <i name="e_fr_energy">    -27.83771253 </i>
    <i name="e_wo_entrp">    -27.83711178 </i>
    <i name="e_0_energy">    -27.83741215 </i>
   </energy>
  </scstep>
  <scstep>
   <time name="diag">    0.59    0.59</time>
   <time name="diis">    0.49    0.49</time>
   <time name="orth">    0.05    0.05</time>
   <time name="total">    1.14    1.14</time>
   <energy>
    <i name="e_fr_energy">    -28.72154821 </i>
    <i name="e_wo_entrp">    -28.72111292 </i>
    <i name="e_0_energy">    -28.72133057 </i>
   </energy>
  </scstep>
  <scstep>
   <time name="diag">    0.59    0.59</time>
   <time name="diis">    0.49    0.49</time>
   <time name="orth">    0.05    0.05</time>
   <time name="total">    1.14    1.14</time>
   <energy>
[...]
       <r>    3.5868    1.0000 </r>
       <r>    8.1633    0.0000 </r>
       <r>    8.2266    0.0000 </r>
       <r>    9.3594    0.0000 </r>
       <r>    9.7701    0.0000 </r>
       <r>   11.6045    0.0000 </r>
       <r>   13.1130    0.0000 </r>
       <r>   14.9858    0.0000 </r>
      </set>
      <set comment="kpoint 619">
       <r>   -4.3647    1.0000 </r>
       <r>    0.2845    1.0000 </r>
       <r>    0.7213    1.0000 </r>
       <r>    1.8144    1.0000 </r>
       <r>    3.9938    1.0000 </r>
       <r>    7.8683    0.0000 </r>
       <r>    8.0825    0.0000 </r>
       <r>    8.9575    0.0000 </r>
       <r>    9.5224    0.0000 </r>
       <r>   12.1217    0.0000 </r>
       <r>   13.5213    0.0000 </r>
       <r>   15.6165    0.0000 </r>
      </set>
      <set comment="kpoint 620">
       <r>   -4.6807    1.0000 </r>
       <r>    0.1247    1.0000 </r>
       <r>    1.1425    1.0000 </r>
       <r>    2.2196    1.0000 </r>
       <r>    4.4193    1.0000 </r>
       <r>    7.5097    0.0000 </r>
       <r>    7.9844    0.0000 </r>
       <r>    8.5349    0.0000 </r>
       <r>    9.0693    0.0000 </r>
       <r>   12.4788    0.0000 </r>
       <r>   13.9510    0.0000 </r>
       <r>   16.0548    0.0000 </r>
      </set>
      <set comment="kpoint 621">
       <r>   -4.9297    1.0000 </r>
       <r>   -0.3844    1.0000 </r>
       <r>    1.9957    1.0000 </r>
       <r>    2.7408    1.0000 </r>
       <r>    4.8515    1.0000 </r>
       <r>    7.1937    0.0000 </r>
       <r>    7.8869    0.0000 </r>
       <r>    8.0777    0.0000 </r>
       <r>    8.4602    0.0000 </r>
       <r>   12.5871    0.0000 </r>
       <r>   14.2861    0.0000 </r>
       <r>   15.6698    0.0000 </r>
      </set>
      <set comment="kpoint 622">
       <r>   -4.9840    1.0000 </r>
       <r>   -0.5191    1.0000 </r>
       <r>    2.6451    1.0000 </r>
       <r>    2.7936    1.0000 </r>
       <r>    5.2606    1.0000 </r>
       <r>    6.6465    0.0000 </r>
       <r>    7.4167    0.0000 </r>
       <r>    7.8764    0.0000 </r>
       <r>    8.1965    0.0000 </r>
       <r>   12.9545    0.0000 </r>
       <r>   13.7431    0.0000 </r>
       <r>   16.2986    0.0000 </r>
      </set>
      <set comment="kpoint 623">
       <r>   -4.8233    1.0000 </r>
       <r>   -0.1857    1.0000 </r>
       <r>    1.9807    1.0000 </r>
       <r>    2.4227    1.0000 </r>
       <r>    4.8653    1.0000 </r>
       <r>    6.9222    0.0000 </r>
       <r>    7.7388    0.0000 </r>
       <r>    7.9516    0.0000 </r>
       <r>    8.6960    0.0000 </r>
       <r>   12.9996    0.0000 </r>
       <r>   13.4609    0.0000 </r>
       <r>   15.8179    0.0000 </r>
      </set>
      <set comment="kpoint 624">
       <r>   -4.5900    1.0000 </r>
       <r>    0.2791    1.0000 </r>
       <r>    1.1953    1.0000 </r>
       <r>    2.0012    1.0000 </r>
       <r>    4.4012    1.0000 </r>
       <r>    7.2999    0.0000 </r>
       <r>    8.0537    0.0000 </r>
       <r>    8.1272    0.0000 </r>
       <r>    9.2930    0.0000 </r>
       <r>   12.8262    0.0000 </r>
       <r>   13.3636    0.0000 </r>
       <r>   15.3485    0.0000 </r>
      </set>
      <set comment="kpoint 625">
       <r>   -4.2874    1.0000 </r>
       <r>    0.3774    1.0000 </r>
       <r>    0.8447    1.0000 </r>
       <r>    1.6115    1.0000 </r>
       <r>    3.9433    1.0000 </r>
       <r>    7.7129    0.0000 </r>
       <r>    8.1804    0.0000 </r>
       <r>    8.5095    0.0000 </r>
       <r>    9.8414    0.0000 </r>
       <r>   12.4017    0.0000 </r>
       <r>   13.4872    0.0000 </r>
       <r>   15.1599    0.0000 </r>
      </set>
      <set comment="kpoint 626">
       <r>   -3.9261    1.0000 </r>
       <r>   -0.4074    1.0000 </r>
       <r>    1.2996    1.0000 </r>
       <r>    1.4651    1.0000 </r>
       <r>    3.5226    1.0000 </r>
       <r>    8.0512    0.0000 </r>
       <r>    8.3785    0.0000 </r>
       <r>    8.8686    0.0000 </r>
       <r>   10.1706    0.0000 </r>
       <r>   11.7995    0.0000 </r>
       <r>   13.7547    0.0000 </r>
       <r>   14.8925    0.0000 </r>
      </set>
      <set comment="kpoint 627">
       <r>   -3.5423    1.0000 </r>
       <r>   -1.0872    1.0000 </r>
       <r>    1.0854    1.0000 </r>
       <r>    2.0768    1.0000 </r>
       <r>    3.1393    1.0000 </r>
       <r>    8.1939    0.0000 </r>
       <r>    8.6904    0.0000 </r>
       <r>    9.1973    0.0000 </r>
       <r>   10.2323    0.0000 </r>
       <r>   11.1907    0.0000 </r>
       <r>   13.8520    0.0000 </r>
       <r>   14.0871    0.0000 </r>
      </set>
      <set comment="kpoint 628">
       <r>   -3.2599    1.0000 </r>
       <r>   -1.5173    1.0000 </r>
       <r>    0.9786    1.0000 </r>
       <r>    2.5925    1.0000 </r>
       <r>    2.7817    1.0000 </r>
       <r>    8.2340    0.0000 </r>
       <r>    8.9091    0.0000 </r>
       <r>    9.4781    0.0000 </r>
       <r>   10.1032    0.0000 </r>
       <r>   10.8109    0.0000 </r>
       <r>   13.7174    0.0000 </r>
       <r>   13.8487    0.0000 </r>
      </set>
      <set comment="kpoint 629">
       <r>   -3.3217    1.0000 </r>
       <r>   -1.4477    1.0000 </r>
       <r>    0.9842    1.0000 </r>
       <r>    2.3194    1.0000 </r>
       <r>    3.0547    1.0000 </r>
       <r>    8.2308    0.0000 </r>
       <r>    8.8596    0.0000 </r>
       <r>    9.6683    0.0000 </r>
       <r>    9.8830    0.0000 </r>
       <r>   10.8594    0.0000 </r>
       <r>   13.6341    0.0000 </r>
       <r>   13.9020    0.0000 </r>
      </set>
      <set comment="kpoint 630">
       <r>   -3.6628    1.0000 </r>
       <r>   -0.9487    1.0000 </r>
       <r>    1.1060    1.0000 </r>
       <r>    1.8108    1.0000 </r>
       <r>    3.3969    1.0000 </r>
       <r>    8.2009    0.0000 </r>
       <r>    8.5889    0.0000 </r>
       <r>    9.5385    0.0000 </r>
       <r>    9.8175    0.0000 </r>
       <r>   11.2675    0.0000 </r>
       <r>   13.8551    0.0000 </r>
       <r>   14.0318    0.0000 </r>
      </set>
      <set comment="kpoint 631">
       <r>   -4.0510    1.0000 </r>
       <r>   -0.2733    1.0000 </r>
       <r>    1.2351    1.0000 </r>
       <r>    1.3491    1.0000 </r>
       <r>    3.7188    1.0000 </r>
       <r>    8.1350    0.0000 </r>
       <r>    8.2397    0.0000 </r>
       <r>    9.2301    0.0000 </r>
       <r>    9.7506    0.0000 </r>
       <r>   11.7943    0.0000 </r>
       <r>   14.1690    0.0000 </r>
       <r>   14.4000    0.0000 </r>
      </set>
      <set comment="kpoint 632">
       <r>   -4.3986    1.0000 </r>
       <r>    0.4506    1.0000 </r>
       <r>    0.6523    1.0000 </r>
       <r>    1.7213    1.0000 </r>
       <r>    4.0584    1.0000 </r>
       <r>    7.8495    0.0000 </r>
       <r>    8.0752    0.0000 </r>
       <r>    8.8968    0.0000 </r>
       <r>    9.5001    0.0000 </r>
       <r>   12.2272    0.0000 </r>
       <r>   14.1434    0.0000 </r>
       <r>   15.9102    0.0000 </r>
      </set>
      <set comment="kpoint 633">
       <r>   -4.6952    1.0000 </r>
       <r>    0.0626    1.0000 </r>
       <r>    1.5956    1.0000 </r>
       <r>    2.1654    1.0000 </r>
       <r>    4.6390    1.0000 </r>
       <r>    7.0804    0.0000 </r>
       <r>    7.8999    0.0000 </r>
       <r>    8.0033    0.0000 </r>
       <r>    8.9562    0.0000 </r>
       <r>   12.9795    0.0000 </r>
       <r>   13.0186    0.0000 </r>
       <r>   16.9718    0.0000 </r>
      </set>
      <set comment="kpoint 634">
       <r>   -4.4945    1.0000 </r>
       <r>    0.4420    1.0000 </r>
       <r>    1.0165    1.0000 </r>
       <r>    1.8357    1.0000 </r>
       <r>    4.2990    1.0000 </r>
       <r>    7.3747    0.0000 </r>
       <r>    8.0819    0.0000 </r>
       <r>    8.1907    0.0000 </r>
       <r>    9.3563    0.0000 </r>
       <r>   12.7005    0.0000 </r>
       <r>   12.8566    0.0000 </r>
       <r>   16.5931    0.0000 </r>
      </set>
      <set comment="kpoint 635">
       <r>   -4.2222    1.0000 </r>
       <r>    0.3591    1.0000 </r>
       <r>    0.9282    1.0000 </r>
       <r>    1.4603    1.0000 </r>
       <r>    3.9233    1.0000 </r>
       <r>    7.7452    0.0000 </r>
       <r>    8.1865    0.0000 </r>
       <r>    8.5196    0.0000 </r>
       <r>    9.8167    0.0000 </r>
       <r>   12.5037    0.0000 </r>
       <r>   12.6978    0.0000 </r>
       <r>   15.5176    0.0000 </r>
      </set>
      <set comment="kpoint 636">
       <r>   -3.8823    1.0000 </r>
       <r>   -0.3322    1.0000 </r>
       <r>    1.1226    1.0000 </r>
       <r>    1.4823    1.0000 </r>
       <r>    3.5647    1.0000 </r>
       <r>    8.0798    0.0000 </r>
       <r>    8.3703    0.0000 </r>
       <r>    8.8331    0.0000 </r>
       <r>   10.1460    0.0000 </r>
       <r>   11.9806    0.0000 </r>
       <r>   13.1114    0.0000 </r>
       <r>   14.4498    0.0000 </r>
      </set>
      <set comment="kpoint 637">
       <r>   -3.4891    1.0000 </r>
       <r>   -1.0063    1.0000 </r>
       <r>    0.8697    1.0000 </r>
       <r>    2.0431    1.0000 </r>
       <r>    3.2493    1.0000 </r>
       <r>    8.2136    0.0000 </r>
       <r>    8.7422    0.0000 </r>
       <r>    9.1200    0.0000 </r>
       <r>   10.2269    0.0000 </r>
       <r>   11.3432    0.0000 </r>
       <r>   13.6267    0.0000 </r>
       <r>   13.9845    0.0000 </r>
      </set>
      <set comment="kpoint 638">
       <r>   -3.0996    1.0000 </r>
       <r>   -1.5757    1.0000 </r>
       <r>    0.7215    1.0000 </r>
       <r>    2.5117    1.0000 </r>
       <r>    2.9949    1.0000 </r>
       <r>    8.2455    0.0000 </r>
       <r>    9.1311    0.0000 </r>
       <r>    9.3755    0.0000 </r>
       <r>   10.1319    0.0000 </r>
       <r>   10.7474    0.0000 </r>
       <r>   13.1176    0.0000 </r>
       <r>   15.3957    0.0000 </r>
      </set>
      <set comment="kpoint 639">
       <r>   -2.9585    1.0000 </r>
       <r>   -1.7792    1.0000 </r>
       <r>    0.6872    1.0000 </r>
       <r>    2.5614    1.0000 </r>
       <r>    3.0268    1.0000 </r>
       <r>    8.2394    0.0000 </r>
       <r>    9.2772    0.0000 </r>
       <r>    9.5869    0.0000 </r>
       <r>    9.9523    0.0000 </r>
       <r>   10.5157    0.0000 </r>
       <r>   12.9161    0.0000 </r>
       <r>   16.1881    0.0000 </r>
      </set>
      <set comment="kpoint 640">
       <r>   -3.2588    1.0000 </r>
       <r>   -1.4255    1.0000 </r>
       <r>    0.7748    1.0000 </r>
       <r>    2.2238    1.0000 </r>
       <r>    3.2598    1.0000 </r>
       <r>    8.2215    0.0000 </r>
       <r>    9.0150    0.0000 </r>
       <r>    9.6886    0.0000 </r>
       <r>    9.7822    0.0000 </r>
       <r>   10.8366    0.0000 </r>
       <r>   13.0387    0.0000 </r>
       <r>   15.2358    0.0000 </r>
      </set>
      <set comment="kpoint 641">
       <r>   -3.6719    1.0000 </r>
       <r>   -0.8632    1.0000 </r>
       <r>    0.9939    1.0000 </r>
       <r>    1.7603    1.0000 </r>
       <r>    3.4782    1.0000 </r>
       <r>    8.1918    0.0000 </r>
       <r>    8.6238    0.0000 </r>
       <r>    9.4785    0.0000 </r>
       <r>    9.8175    0.0000 </r>
       <r>   11.3461    0.0000 </r>
       <r>   13.5272    0.0000 </r>
       <r>   14.9403    0.0000 </r>
      </set>
      <set comment="kpoint 642">
       <r>   -4.3291    1.0000 </r>
       <r>    0.5954    1.0000 </r>
       <r>    0.7271    1.0000 </r>
       <r>    1.6684    1.0000 </r>
       <r>    4.0864    1.0000 </r>
       <r>    7.5702    0.0000 </r>
       <r>    8.1327    0.0000 </r>
       <r>    8.3878    0.0000 </r>
       <r>    9.5300    0.0000 </r>
       <r>   12.2107    0.0000 </r>
       <r>   12.7004    0.0000 </r>
       <r>   16.7676    0.0000 </r>
      </set>
      <set comment="kpoint 643">
       <r>   -4.0939    1.0000 </r>
       <r>    0.0861    1.0000 </r>
       <r>    1.1164    1.0000 </r>
       <r>    1.4047    1.0000 </r>
       <r>    3.8119    1.0000 </r>
       <r>    7.8587    0.0000 </r>
       <r>    8.2061    0.0000 </r>
       <r>    8.6600    0.0000 </r>
       <r>    9.8256    0.0000 </r>
       <r>   11.9667    0.0000 </r>
       <r>   12.3970    0.0000 </r>
       <r>   15.8189    0.0000 </r>
      </set>
      <set comment="kpoint 644">
       <r>   -3.7901    1.0000 </r>
       <r>   -0.4619    1.0000 </r>
       <r>    1.0888    1.0000 </r>
       <r>    1.5783    1.0000 </r>
       <r>    3.5282    1.0000 </r>
       <r>    8.1498    0.0000 </r>
       <r>    8.3501    0.0000 </r>
       <r>    8.9235    0.0000 </r>
       <r>   10.1253    0.0000 </r>
       <r>   11.9849    0.0000 </r>
       <r>   12.1072    0.0000 </r>
       <r>   14.6392    0.0000 </r>
      </set>
      <set comment="kpoint 645">
       <r>   -3.4217    1.0000 </r>
       <r>   -1.0333    1.0000 </r>
       <r>    0.8020    1.0000 </r>
       <r>    2.0594    1.0000 </r>
       <r>    3.2773    1.0000 </r>
       <r>    8.2523    0.0000 </r>
       <r>    8.7157    0.0000 </r>
       <r>    9.1504    0.0000 </r>
       <r>   10.2240    0.0000 </r>
       <r>   11.4660    0.0000 </r>
       <r>   12.7791    0.0000 </r>
       <r>   13.6202    0.0000 </r>
      </set>
      <set comment="kpoint 646">
       <r>   -3.0015    1.0000 </r>
       <r>   -1.6051    1.0000 </r>
       <r>    0.6033    1.0000 </r>
       <r>    2.4687    1.0000 </r>
       <r>    3.0964    1.0000 </r>
       <r>    8.2706    0.0000 </r>
       <r>    9.1733    0.0000 </r>
       <r>    9.3474    0.0000 </r>
       <r>   10.1534    0.0000 </r>
       <r>   10.8431    0.0000 </r>
       <r>   12.9250    0.0000 </r>
       <r>   13.8556    0.0000 </r>
      </set>
      <set comment="kpoint 647">
       <r>   -2.6078    1.0000 </r>
       <r>   -2.0871    1.0000 </r>
       <r>    0.5233    1.0000 </r>
       <r>    2.6379    1.0000 </r>
       <r>    3.0653    1.0000 </r>
       <r>    8.2554    0.0000 </r>
       <r>    9.5184    0.0000 </r>
       <r>    9.6428    0.0000 </r>
       <r>   10.0185    0.0000 </r>
       <r>   10.2280    0.0000 </r>
       <r>   12.5981    0.0000 </r>
       <r>   15.1159    0.0000 </r>
      </set>
      <set comment="kpoint 648">
       <r>   -2.8107    1.0000 </r>
       <r>   -1.9065    1.0000 </r>
       <r>    0.5776    1.0000 </r>
       <r>    2.5148    1.0000 </r>
       <r>    3.1605    1.0000 </r>
       <r>    8.2353    0.0000 </r>
       <r>    9.4996    0.0000 </r>
       <r>    9.6581    0.0000 </r>
       <r>    9.8669    0.0000 </r>
       <r>   10.3273    0.0000 </r>
       <r>   12.6262    0.0000 </r>
       <r>   16.0416    0.0000 </r>
      </set>
      <set comment="kpoint 649">
       <r>   -3.9035    1.0000 </r>
       <r>   -0.3047    1.0000 </r>
       <r>    1.3092    1.0000 </r>
       <r>    1.3960    1.0000 </r>
       <r>    3.6327    1.0000 </r>
       <r>    8.0479    0.0000 </r>
       <r>    8.2437    0.0000 </r>
       <r>    8.9049    0.0000 </r>
       <r>    9.9127    0.0000 </r>
       <r>   11.4680    0.0000 </r>
       <r>   12.1516    0.0000 </r>
       <r>   15.9451    0.0000 </r>
      </set>
      <set comment="kpoint 650">
       <r>   -3.6535    1.0000 </r>
       <r>   -0.7267    1.0000 </r>
       <r>    1.1176    1.0000 </r>
       <r>    1.7429    1.0000 </r>
       <r>    3.4254    1.0000 </r>
       <r>    8.2505    0.0000 </r>
       <r>    8.3419    0.0000 </r>
       <r>    9.1476    0.0000 </r>
       <r>   10.1094    0.0000 </r>
       <r>   11.2932    0.0000 </r>
       <r>   11.8435    0.0000 </r>
       <r>   15.1448    0.0000 </r>
      </set>
      <set comment="kpoint 651">
       <r>   -3.3495    1.0000 </r>
       <r>   -1.1547    1.0000 </r>
       <r>    0.8706    1.0000 </r>
       <r>    2.1140    1.0000 </r>
       <r>    3.2334    1.0000 </r>
       <r>    8.2987    0.0000 </r>
       <r>    8.6421    0.0000 </r>
       <r>    9.2979    0.0000 </r>
       <r>   10.2225    0.0000 </r>
       <r>   11.4923    0.0000 </r>
       <r>   11.6788    0.0000 </r>
       <r>   14.0783    0.0000 </r>
      </set>
      <set comment="kpoint 652">
       <r>   -3.0050    1.0000 </r>
       <r>   -1.5831    1.0000 </r>
       <r>    0.6458    1.0000 </r>
       <r>    2.4363    1.0000 </r>
       <r>    3.1010    1.0000 </r>
       <r>    8.3040    0.0000 </r>
       <r>    9.0129    0.0000 </r>
       <r>    9.3872    0.0000 </r>
       <r>   10.1741    0.0000 </r>
       <r>   11.0698    0.0000 </r>
       <r>   12.5953    0.0000 </r>
       <r>   13.1952    0.0000 </r>
      </set>
      <set comment="kpoint 653">
       <r>   -2.6603    1.0000 </r>
       <r>   -1.9871    1.0000 </r>
       <r>    0.5147    1.0000 </r>
       <r>    2.6117    1.0000 </r>
       <r>    3.0662    1.0000 </r>
       <r>    8.2828    0.0000 </r>
       <r>    9.4195    0.0000 </r>
       <r>    9.4551    0.0000 </r>
       <r>   10.0929    0.0000 </r>
       <r>   10.5607    0.0000 </r>
       <r>   12.6873    0.0000 </r>
       <r>   13.7920    0.0000 </r>
      </set>
      <set comment="kpoint 654">
       <r>   -3.4811    1.0000 </r>
       <r>   -1.0199    1.0000 </r>
       <r>    1.0921    1.0000 </r>
       <r>    1.9558    1.0000 </r>
       <r>    3.2880    1.0000 </r>
       <r>    8.3179    0.0000 </r>
       <r>    8.4138    0.0000 </r>
       <r>    9.4609    0.0000 </r>
       <r>   10.1262    0.0000 </r>
       <r>   10.7681    0.0000 </r>
       <r>   11.6583    0.0000 </r>
       <r>   15.3830    0.0000 </r>
      </set>
      <set comment="kpoint 655">
       <r>   -3.2907    1.0000 </r>
       <r>   -1.2808    1.0000 </r>
       <r>    0.9738    1.0000 </r>
       <r>    2.1791    1.0000 </r>
       <r>    3.1614    1.0000 </r>
       <r>    8.3329    0.0000 </r>
       <r>    8.5774    0.0000 </r>
       <r>    9.5856    0.0000 </r>
       <r>   10.2216    0.0000 </r>
       <r>   10.7785    0.0000 </r>
       <r>   11.4732    0.0000 </r>
       <r>   14.7693    0.0000 </r>
      </set>
      <set comment="kpoint 656">
       <r>   -3.1153    1.0000 </r>
       <r>   -1.4758    1.0000 </r>
       <r>    0.7984    1.0000 </r>
       <r>    2.3533    1.0000 </r>
       <r>    3.0954    1.0000 </r>
       <r>    8.3290    0.0000 </r>
       <r>    8.7853    0.0000 </r>
       <r>    9.4858    0.0000 </r>
       <r>   10.2012    0.0000 </r>
       <r>   11.2860    0.0000 </r>
       <r>   11.5208    0.0000 </r>
       <r>   13.8814    0.0000 </r>
      </set>
      <set comment="kpoint 657">
       <r>   -3.2673    1.0000 </r>
       <r>   -1.3326    1.0000 </r>
       <r>    1.0195    1.0000 </r>
       <r>    2.2100    1.0000 </r>
       <r>    3.1254    1.0000 </r>
       <r>    8.3436    0.0000 </r>
       <r>    8.5544    0.0000 </r>
       <r>    9.9475    0.0000 </r>
       <r>   10.1941    0.0000 </r>
       <r>   10.2321    0.0000 </r>
       <r>   11.4621    0.0000 </r>
       <r>   15.1774    0.0000 </r>
      </set>
     </set>
    </set>
   </array>
  </eigenvalues>
  <separator name="orbital magnetization" >
   <v name="MAGDIPOLOUT">      0.00000000      0.00000000      0.00000000</v>
  </separator>
 </calculation>
 <structure name="finalpos" >
  <crystal>
   <varray name="basis" >
    <v>       3.21491135       0.00000000       0.00000000 </v>
    <v>      -1.60745567       2.62659896       0.00000000 </v>
    <v>       0.00000000       0.00000000       3.22568951 </v>
   </varray>
   <i name="volume">     27.23863444 </i>
   <varray name="rec_basis" >
    <v>       0.31105057       0.19036024       0.00000000 </v>
    <v>       0.00000000       0.38072047       0.00000000 </v>
    <v>       0.00000000       0.00000000       0.31001124 </v>
   </varray>
  </crystal>
  <varray name="positions" >
   <v>      -0.00000000      -0.00000000       0.00000000 </v>
   <v>       0.33272825       0.66545650       0.50000000 </v>
   <v>       0.66727175       0.33454350       0.50000000 </v>
  </varray>
 </structure>
</modeling>
