unknown system                          
           1
     3.214911    0.000000    0.000000
    -1.607456    2.626599    0.000000
     0.000000    0.000000    3.225690
   Ti   B 
   1   2
Direct configuration=     1
   0.00000000  0.00000000  0.00000000
   0.33333333  0.66666667  0.50000000
   0.66666667  0.33333333  0.50000000
Direct configuration=     2
  -0.00000000 -0.00000000  0.00000000
   0.33252120  0.66504240  0.50000000
   0.66747880  0.33495760  0.50000000
Direct configuration=     3
  -0.00000000 -0.00000000  0.00000000
   0.33272825  0.66545650  0.50000000
   0.66727175  0.33454350  0.50000000
