    3    3   50    1
  0.9071836E+01  0.3032935E-09  0.3033959E-09  0.3420600E-09  0.5000000E-15
  1.000000000000000E-004
  CAR 
 unknown system                          
     10   1098     12
 
  0.0000000E+00  0.0000000E+00  0.0000000E+00  0.2441406E-03
    1       -7.289524   1.000000
    2        3.106021   1.000000
    3        3.776829   1.000000
    4        3.797503   1.000000
    5        3.815516   1.000000
    6        7.461059   0.000000
    7        7.481741   0.000000
    8        8.961308   0.000000
    9        9.043560   0.000000
   10       11.902606   0.000000
   11       11.930144   0.000000
   12       13.440857   0.000000
 
  0.6250000E-01 -0.5702226E-17 -0.2168404E-18  0.9765625E-03
    1       -7.217222   1.000000
    2        3.060370   1.000000
    3        3.574834   1.000000
    4        3.783237   1.000000
    5        3.847655   1.000000
    6        7.443263   0.000000
    7        7.575003   0.000000
    8        8.749780   0.000000
    9        8.831210   0.000000
   10       12.098413   0.000000
   11       12.321233   0.000000
   12       13.661495   0.000000
 
  0.1250000E+00 -0.1140445E-16 -0.4336809E-18  0.9765625E-03
    1       -7.001847   1.000000
    2        2.902315   1.000000
    3        3.011530   1.000000
    4        3.731259   1.000000
    5        3.981293   1.000000
    6        7.379542   0.000000
    7        7.815811   0.000000
    8        8.309496   0.000000
    9        8.488617   0.000000
   10       12.383837   0.000000
   11       13.288848   0.000000
   12       14.231410   0.000000
 
  0.1875000E+00 -0.3266159E-17 -0.8673617E-18  0.9765625E-03
    1       -6.647887   1.000000
    2        2.083909   1.000000
    3        2.823726   1.000000
    4        3.621552   1.000000
    5        4.137246   1.000000
    6        7.286503   0.000000
    7        7.804608   0.000000
    8        8.124489   0.000000
    9        8.418423   0.000000
   10       12.540749   0.000000
   11       13.779399   0.000000
   12       14.631510   0.000000
 
  0.2500000E+00 -0.2280890E-16 -0.8673617E-18  0.9765625E-03
    1       -6.162311   1.000000
    2        1.073321   1.000000
    3        2.698799   1.000000
    4        3.459376   1.000000
    5        4.215358   1.000000
    6        7.187485   0.000000
    7        7.679905   0.000000
    8        8.093304   0.000000
    9        8.732937   0.000000
   10       12.593127   0.000000
   11       13.078710   0.000000
   12       14.069649   0.000000
 
  0.3125000E+00 -0.5627009E-16 -0.1734723E-17  0.9765625E-03
    1       -5.553929   1.000000
    2        0.003252   1.000000
    3        2.608308   1.000000
    4        3.273259   1.000000
    5        4.161411   1.000000
    6        7.094969   0.000000
    7        7.851997   0.000000
    8        8.170157   0.000000
    9        8.981194   0.000000
   10       12.568709   0.000000
   11       12.670333   0.000000
   12       14.033806   0.000000
 
  0.3750000E+00 -0.6532318E-17 -0.1734723E-17  0.9765625E-03
    1       -4.832890   1.000000
    2       -1.070817   1.000000
    3        2.556061   1.000000
    4        3.102348   1.000000
    5        4.030050   1.000000
    6        7.013024   0.000000
    7        8.242499   0.000000
    8        8.320308   0.000000
    9        9.039748   0.000000
   10       12.505716   0.000000
   11       12.570597   0.000000
   12       13.894971   0.000000
 
  0.4375000E+00  0.1558541E-16  0.0000000E+00  0.9765625E-03
    1       -4.010423   1.000000
    2       -2.113033   1.000000
    3        2.534870   1.000000
    4        2.981642   1.000000
    5        3.912830   1.000000
    6        6.957165   0.000000
    7        8.444460   0.000000
    8        8.666504   0.000000
    9        8.973111   0.000000
   10       12.457970   0.000000
   11       12.612895   0.000000
   12       13.733027   0.000000
 
  0.5000000E+00 -0.4561781E-16 -0.1734723E-17  0.4882812E-03
    1       -3.105883   1.000000
    2       -3.092000   1.000000
    3        2.530650   1.000000
    4        2.937573   1.000000
    5        3.867799   1.000000
    6        6.937497   0.000000
    7        8.503986   0.000000
    8        8.874141   0.000000
    9        8.897547   0.000000
   10       12.413738   0.000000
   11       12.666793   0.000000
   12       13.662113   0.000000
 
  0.0000000E+00  0.6250000E-01 -0.4336809E-18  0.4882812E-03
    1       -7.217037   1.000000
    2        3.056686   1.000000
    3        3.590864   1.000000
    4        3.778043   1.000000
    5        3.838694   1.000000
    6        7.463869   0.000000
    7        7.543831   0.000000
    8        8.752428   0.000000
    9        8.849242   0.000000
   10       12.099011   0.000000
   11       12.305662   0.000000
   12       13.659786   0.000000
 
  0.6250000E-01  0.6250000E-01 -0.8673617E-18  0.9765625E-03
    1       -7.073007   1.000000
    2        2.971193   1.000000
    3        3.199487   1.000000
    4        3.679875   1.000000
    5        3.977822   1.000000
    6        7.388481   0.000000
    7        7.735776   0.000000
    8        8.445431   0.000000
    9        8.588739   0.000000
   10       12.406003   0.000000
   11       12.848241   0.000000
   12       13.862012   0.000000
 
  0.1250000E+00  0.6250000E-01 -0.8673617E-18  0.9765625E-03
    1       -6.788160   1.000000
    2        2.488899   1.000000
    3        2.849421   1.000000
    4        3.504102   1.000000
    5        4.190659   1.000000
    6        7.252179   0.000000
    7        7.997260   0.000000
    8        8.034061   0.000000
    9        8.440373   0.000000
   10       12.670158   0.000000
   11       13.660397   0.000000
   12       14.164270   0.000000
 
  0.1875000E+00  0.6250000E-01 -0.8673617E-18  0.9765625E-03
    1       -6.368201   1.000000
    2        1.576696   1.000000
    3        2.720975   1.000000
    4        3.268004   1.000000
    5        4.400489   1.000000
    6        7.089200   0.000000
    7        7.687696   0.000000
    8        8.142647   0.000000
    9        8.687104   0.000000
   10       12.756804   0.000000
   11       13.310730   0.000000
   12       14.096127   0.000000
 
  0.2500000E+00  0.6250000E-01 -0.1734723E-17  0.9765625E-03
    1       -5.821035   1.000000
    2        0.554136   1.000000
    3        2.616167   1.000000
    4        3.008781   1.000000
    5        4.512218   1.000000
    6        6.942922   0.000000
    7        7.593178   0.000000
    8        8.274092   0.000000
    9        9.045690   0.000000
   10       12.756791   0.000000
   11       12.770083   0.000000
   12       14.153518   0.000000
 
  0.3125000E+00  0.6250000E-01  0.0000000E+00  0.9765625E-03
    1       -5.156196   1.000000
    2       -0.507454   1.000000
    3        2.536767   1.000000
    4        2.781060   1.000000
    5        4.490572   1.000000
    6        6.807796   0.000000
    7        7.771647   0.000000
    8        8.478843   0.000000
    9        9.267164   0.000000
   10       12.508474   0.000000
   11       12.726898   0.000000
   12       16.855252   0.000000
 
  0.3750000E+00  0.6250000E-01 -0.1734723E-17  0.9765625E-03
    1       -4.384485   1.000000
    2       -1.560123   1.000000
    3        2.462556   1.000000
    4        2.640004   1.000000
    5        4.406611   1.000000
    6        6.685555   0.000000
    7        8.099648   0.000000
    8        8.685115   0.000000
    9        9.314594   0.000000
   10       12.500271   0.000000
   11       12.687719   0.000000
   12       13.983784   0.000000
 
  0.4375000E+00  0.6250000E-01 -0.1734723E-17  0.9765625E-03
    1       -3.518102   1.000000
    2       -2.571415   1.000000
    3        2.402667   1.000000
    4        2.590084   1.000000
    5        4.345740   1.000000
    6        6.611672   0.000000
    7        8.353921   0.000000
    8        8.805310   0.000000
    9        9.297354   0.000000
   10       12.526362   0.000000
   11       12.696811   0.000000
   12       13.886182   0.000000
 
  0.5000000E+00  0.6250000E-01 -0.1734723E-17  0.9765625E-03
    1       -3.519678   1.000000
    2       -2.569949   1.000000
    3        2.408258   1.000000
    4        2.582576   1.000000
    5        4.350076   1.000000
    6        6.612053   0.000000
    7        8.358302   0.000000
    8        8.776274   0.000000
    9        9.323279   0.000000
   10       12.539415   0.000000
   11       12.670438   0.000000
   12       13.894707   0.000000
 
 -0.4375000E+00  0.6250000E-01  0.8673617E-18  0.9765625E-03
    1       -4.386088   1.000000
    2       -1.558923   1.000000
    3        2.489317   1.000000
    4        2.607995   1.000000
    5        4.418273   1.000000
    6        6.690015   0.000000
    7        8.101910   0.000000
    8        8.629883   0.000000
    9        9.366947   0.000000
   10       12.521589   0.000000
   11       12.635751   0.000000
   12       14.001761   0.000000
 
 -0.3750000E+00  0.6250000E-01  0.0000000E+00  0.9765625E-03
    1       -5.157748   1.000000
    2       -0.506885   1.000000
    3        2.581787   1.000000
    4        2.728457   1.000000
    5        4.506553   1.000000
    6        6.827741   0.000000
    7        7.752851   0.000000
    8        8.429178   0.000000
    9        9.317983   0.000000
   10       12.497078   0.000000
   11       12.706210   0.000000
   12       14.120864   0.000000
 
 -0.3125000E+00  0.6250000E-01  0.8673617E-18  0.9765625E-03
    1       -5.822436   1.000000
    2        0.553031   1.000000
    3        2.661044   1.000000
    4        2.955578   1.000000
    5        4.530077   1.000000
    6        6.997526   0.000000
    7        7.530803   0.000000
    8        8.240076   0.000000
    9        9.083945   0.000000
   10       12.662130   0.000000
   11       12.843436   0.000000
   12       14.165965   0.000000
 
 -0.2500000E+00  0.6250000E-01  0.0000000E+00  0.9765625E-03
    1       -6.369376   1.000000
    2        1.570629   1.000000
    3        2.767854   1.000000
    4        3.215620   1.000000
    5        4.419403   1.000000
    6        7.170781   0.000000
    7        7.576196   0.000000
    8        8.143183   0.000000
    9        8.705659   0.000000
   10       12.725405   0.000000
   11       13.348560   0.000000
   12       14.991382   0.000000
 
 -0.1875000E+00  0.6250000E-01  0.0000000E+00  0.9765625E-03
    1       -6.789042   1.000000
    2        2.463854   1.000000
    3        2.907949   1.000000
    4        3.456952   1.000000
    5        4.210493   1.000000
    6        7.316511   0.000000
    7        7.803186   0.000000
    8        8.205208   0.000000
    9        8.381853   0.000000
   10       12.662804   0.000000
   11       13.706248   0.000000
   12       13.948447   0.000000
 
 -0.1250000E+00  0.6250000E-01  0.0000000E+00  0.4882812E-03
    1       -7.073553   1.000000
    2        2.961566   1.000000
    3        3.223658   1.000000
    4        3.649435   1.000000
    5        3.998335   1.000000
    6        7.409264   0.000000
    7        7.733855   0.000000
    8        8.473319   0.000000
    9        8.522577   0.000000
   10       12.402012   0.000000
   11       12.885469   0.000000
   12       14.151664   0.000000
 
  0.0000000E+00  0.1250000E+00 -0.8673617E-18  0.4882812E-03
    1       -7.001125   1.000000
    2        2.856522   1.000000
    3        3.072592   1.000000
    4        3.713395   1.000000
    5        3.977534   1.000000
    6        7.415829   0.000000
    7        7.695822   0.000000
    8        8.413576   0.000000
    9        8.496419   0.000000
   10       12.351043   0.000000
   11       13.343615   0.000000
   12       14.012641   0.000000
 
  0.6250000E-01  0.1250000E+00 -0.1734723E-17  0.9765625E-03
    1       -6.787632   1.000000
    2        2.469743   1.000000
    3        2.888530   1.000000
    4        3.477898   1.000000
    5        4.192707   1.000000
    6        7.279976   0.000000
    7        7.796405   0.000000
    8        8.209472   0.000000
    9        8.455866   0.000000
   10       12.634454   0.000000
   11       13.781851   0.000000
   12       14.071913   0.000000
 
  0.1250000E+00  0.1250000E+00 -0.1734723E-17  0.9765625E-03
    1       -6.436764   1.000000
    2        1.842923   1.000000
    3        2.715370   1.000000
    4        3.067323   1.000000
    5        4.519226   1.000000
    6        7.028208   0.000000
    7        7.650694   0.000000
    8        8.173418   0.000000
    9        8.741681   0.000000
   10       12.970802   0.000000
   11       13.408587   0.000000
   12       14.194986   0.000000
 
  0.1875000E+00  0.1250000E+00  0.0000000E+00  0.9765625E-03
    1       -5.955135   1.000000
    2        1.025102   1.000000
    3        2.411460   1.000000
    4        2.799330   1.000000
    5        4.846446   1.000000
    6        6.745614   0.000000
    7        7.381178   0.000000
    8        8.358090   0.000000
    9        9.208470   0.000000
   10       12.825470   0.000000
   11       13.082625   0.000000
   12       14.497604   0.000000
 
  0.2500000E+00  0.1250000E+00 -0.1734723E-17  0.9765625E-03
    1       -5.351406   1.000000
    2        0.070792   1.000000
    3        2.042187   1.000000
    4        2.719515   1.000000
    5        5.058214   1.000000
    6        6.476158   0.000000
    7        7.302813   0.000000
    8        8.588862   0.000000
    9        9.654140   0.000000
   10       12.471723   0.000000
   11       13.060698   0.000000
   12       14.535370   0.000000
 
  0.3125000E+00  0.1250000E+00 -0.1734723E-17  0.9765625E-03
    1       -4.635918   1.000000
    2       -0.941890   1.000000
    3        1.753112   1.000000
    4        2.707767   1.000000
    5        5.096711   1.000000
    6        6.222180   0.000000
    7        7.522748   0.000000
    8        8.754033   0.000000
    9        9.938157   0.000000
   10       12.383661   0.000000
   11       13.043844   0.000000
   12       14.537285   0.000000
 
  0.3750000E+00  0.1250000E+00 -0.1734723E-17  0.9765625E-03
    1       -3.820950   1.000000
    2       -1.951708   1.000000
    3        1.573811   1.000000
    4        2.721970   1.000000
    5        5.056274   1.000000
    6        6.024894   0.000374
    7        7.897249   0.000000
    8        8.764908   0.000000
    9       10.045761   0.000000
   10       12.481737   0.000000
   11       13.055202   0.000000
   12       14.499435   0.000000
 
  0.4375000E+00  0.1250000E+00 -0.1734723E-17  0.9765625E-03
    1       -2.967898   1.000000
    2       -2.872275   1.000000
    3        1.512479   1.000000
    4        2.731614   1.000000
    5        5.037300   1.000000
    6        5.947605   0.117972
    7        8.119925   0.000000
    8        8.691526   0.000000
    9       10.073667   0.000000
   10       12.555453   0.000000
   11       13.053315   0.000000
   12       14.482756   0.000000
 
  0.5000000E+00  0.1250000E+00 -0.3469447E-17  0.9765625E-03
    1       -3.824102   1.000000
    2       -1.948919   1.000000
    3        1.572104   1.000000
    4        2.722521   1.000000
    5        5.067964   1.000000
    6        6.022458   0.000479
    7        7.892590   0.000000
    8        8.746847   0.000000
    9       10.076013   0.000000
   10       12.485393   0.000000
   11       13.014032   0.000000
   12       14.518427   0.000000
 
 -0.4375000E+00  0.1250000E+00  0.0000000E+00  0.9765625E-03
    1       -4.639030   1.000000
    2       -0.939731   1.000000
    3        1.752882   1.000000
    4        2.705927   1.000000
    5        5.112665   1.000000
    6        6.232914   0.000000
    7        7.502097   0.000000
    8        8.723174   0.000000
    9        9.990111   0.000000
   10       12.372333   0.000000
   11       12.997819   0.000000
   12       14.562744   0.000000
 
 -0.3750000E+00  0.1250000E+00  0.0000000E+00  0.9765625E-03
    1       -5.354313   1.000000
    2        0.071133   1.000000
    3        2.053314   1.000000
    4        2.706346   1.000000
    5        5.073543   1.000000
    6        6.526190   0.000000
    7        7.242527   0.000000
    8        8.556572   0.000000
    9        9.702769   0.000000
   10       12.447174   0.000000
   11       13.034810   0.000000
   12       14.566364   0.000000
 
 -0.3125000E+00  0.1250000E+00  0.2168404E-18  0.9765625E-03
    1       -5.957670   1.000000
    2        1.020669   1.000000
    3        2.468825   1.000000
    4        2.742579   1.000000
    5        4.862930   1.000000
    6        6.839964   0.000000
    7        7.271396   0.000000
    8        8.336464   0.000000
    9        9.235364   0.000000
   10       12.768370   0.000000
   11       13.115589   0.000000
   12       14.484313   0.000000
 
 -0.2500000E+00  0.1250000E+00  0.0000000E+00  0.4882812E-03
    1       -6.438789   1.000000
    2        1.831523   1.000000
    3        2.813183   1.000000
    4        2.974845   1.000000
    5        4.537503   1.000000
    6        7.120441   0.000000
    7        7.534061   0.000000
    8        8.181869   0.000000
    9        8.731579   0.000000
   10       12.937781   0.000000
   11       13.471682   0.000000
   12       15.666882   0.000000
 
  0.0000000E+00  0.1875000E+00 -0.1734723E-17  0.4882812E-03
    1       -6.646332   1.000000
    2        2.074561   1.000000
    3        2.850771   1.000000
    4        3.594596   1.000000
    5        4.135344   1.000000
    6        7.347530   0.000000
    7        7.609705   0.000000
    8        8.235321   0.000000
    9        8.482852   0.000000
   10       12.487817   0.000000
   11       13.815797   0.000000
   12       14.499660   0.000000
 
  0.6250000E-01  0.1875000E+00  0.1734723E-17  0.9765625E-03
    1       -6.366875   1.000000
    2        1.570825   1.000000
    3        2.761747   1.000000
    4        3.222725   1.000000
    5        4.402865   1.000000
    6        7.135579   0.000000
    7        7.583827   0.000000
    8        8.169127   0.000000
    9        8.748636   0.000000
   10       12.694167   0.000000
   11       13.331264   0.000000
   12       14.612611   0.000000
 
  0.1250000E+00  0.1875000E+00  0.0000000E+00  0.9765625E-03
    1       -5.954351   1.000000
    2        1.023650   1.000000
    3        2.434569   1.000000
    4        2.774052   1.000000
    5        4.845921   1.000000
    6        6.768626   0.000000
    7        7.352465   0.000000
    8        8.352126   0.000000
    9        9.234137   0.000000
   10       12.790090   0.000000
   11       13.083476   0.000000
   12       14.586009   0.000000
 
  0.1875000E+00  0.1875000E+00  0.0000000E+00  0.9765625E-03
    1       -5.416147   1.000000
    2        0.402576   1.000000
    3        1.695592   1.000000
    4        2.743055   1.000000
    5        5.318481   1.000000
    6        6.340984   0.000000
    7        7.068590   0.000000
    8        8.624183   0.000000
    9        9.834661   0.000000
   10       12.437526   0.000000
   11       13.241710   0.000000
   12       15.228387   0.000000
 
  0.2500000E+00  0.1875000E+00 -0.1734723E-17  0.9765625E-03
    1       -4.761810   1.000000
    2       -0.374032   1.000000
    3        1.107002   1.000000
    4        2.794449   1.000000
    5        5.669271   1.000000
    6        5.907321   0.481746
    7        6.991603   0.000000
    8        8.796593   0.000000
    9       10.403406   0.000000
   10       12.238976   0.000000
   11       13.356410   0.000000
   12       15.501992   0.000000
 
  0.3125000E+00  0.1875000E+00 -0.1734723E-17  0.9765625E-03
    1       -4.003576   1.000000
    2       -1.286494   1.000000
    3        0.754466   1.000000
    4        2.886890   1.000000
    5        5.509074   1.000000
    6        5.776354   0.999873
    7        7.280943   0.000000
    8        8.761671   0.000000
    9       10.770489   0.000000
   10       12.284939   0.000000
   11       13.507449   0.000000
   12       15.364573   0.000000
 
  0.3750000E+00  0.1875000E+00 -0.3469447E-17  0.9765625E-03
    1       -3.160749   1.000000
    2       -2.229634   1.000000
    3        0.592100   1.000000
    4        2.965186   1.000000
    5        5.281137   1.000000
    6        5.745455   0.999997
    7        7.692605   0.000000
    8        8.554276   0.000000
    9       10.900988   0.000000
   10       12.454400   0.000000
   11       13.635301   0.000000
   12       15.375002   0.000000
 
  0.4375000E+00  0.1875000E+00 -0.1734723E-17  0.9765625E-03
    1       -3.165252   1.000000
    2       -2.225175   1.000000
    3        0.590359   1.000000
    4        2.967283   1.000000
    5        5.287529   1.000000
    6        5.742165   0.999998
    7        7.690831   0.000000
    8        8.550288   0.000000
    9       10.916032   0.000000
   10       12.452362   0.000000
   11       13.617561   0.000000
   12       15.379670   0.000000
 
  0.5000000E+00  0.1875000E+00  0.0000000E+00  0.9765625E-03
    1       -4.008128   1.000000
    2       -1.282150   1.000000
    3        0.750071   1.000000
    4        2.891933   1.000000
    5        5.528028   1.000000
    6        5.771658   0.999925
    7        7.269749   0.000000
    8        8.748700   0.000000
    9       10.818101   0.000000
   10       12.266639   0.000000
   11       13.467001   0.000000
   12       15.392190   0.000000
 
 -0.4375000E+00  0.1875000E+00  0.0000000E+00  0.9765625E-03
    1       -4.766171   1.000000
    2       -0.370948   1.000000
    3        1.103323   1.000000
    4        2.799080   1.000000
    5        5.666763   1.000000
    6        5.952472   0.092944
    7        6.953013   0.000000
    8        8.774963   0.000000
    9       10.461336   0.000000
   10       12.211584   0.000000
   11       13.315320   0.000000
   12       15.339266   0.000000
 
 -0.3750000E+00  0.1875000E+00  0.0000000E+00  0.4882812E-03
    1       -5.420097   1.000000
    2        0.402025   1.000000
    3        1.700209   1.000000
    4        2.741091   1.000000
    5        5.330314   1.000000
    6        6.405349   0.000000
    7        6.996568   0.000000
    8        8.601416   0.000000
    9        9.870140   0.000000
   10       12.419650   0.000000
   11       13.220203   0.000000
   12       15.274585   0.000000
 
  0.0000000E+00  0.2500000E+00 -0.1734723E-17  0.4882812E-03
    1       -6.159725   1.000000
    2        1.071410   1.000000
    3        2.719297   1.000000
    4        3.429089   1.000000
    5        4.212938   1.000000
    6        7.261073   0.000000
    7        7.531770   0.000000
    8        8.145585   0.000000
    9        8.798479   0.000000
   10       12.531018   0.000000
   11       13.061192   0.000000
   12       14.106507   0.000000
 
  0.6250000E-01  0.2500000E+00 -0.1734723E-17  0.9765625E-03
    1       -5.818735   1.000000
    2        0.553793   1.000000
    3        2.663935   1.000000
    4        2.950488   1.000000
    5        4.513059   1.000000
    6        7.003386   0.000000
    7        7.510638   0.000000
    8        8.266230   0.000000
    9        9.106704   0.000000
   10       12.626147   0.000000
   11       12.823960   0.000000
   12       14.188437   0.000000
 
  0.1250000E+00  0.2500000E+00 -0.3469447E-17  0.9765625E-03
    1       -5.349708   1.000000
    2        0.072291   1.000000
    3        2.051224   1.000000
    4        2.704792   1.000000
    5        5.054622   1.000000
    6        6.516524   0.000000
    7        7.260173   0.000000
    8        8.577894   0.000000
    9        9.685208   0.000000
   10       12.435908   0.000000
   11       13.045490   0.000000
   12       14.555055   0.000000
 
  0.1875000E+00  0.2500000E+00 -0.3469447E-17  0.9765625E-03
    1       -4.760920   1.000000
    2       -0.371945   1.000000
    3        1.106073   1.000000
    4        2.792529   1.000000
    5        5.644078   1.000000
    6        5.949247   0.109046
    7        6.971308   0.000000
    8        8.794282   0.000000
    9       10.411768   0.000000
   10       12.224587   0.000000
   11       13.349574   0.000000
   12       15.731841   0.000000
 
  0.2500000E+00  0.2500000E+00 -0.3469447E-17  0.9765625E-03
    1       -4.064038   1.000000
    2       -0.857667   1.000000
    3        0.271557   1.000000
    4        2.967734   1.000000
    5        5.324783   1.000000
    6        6.260412   0.000000
    7        6.796486   0.000000
    8        8.762434   0.000000
    9       11.138573   0.000000
   10       12.112257   0.000000
   11       13.714814   0.000000
   12       16.316682   0.000000
 
  0.3125000E+00  0.2500000E+00 -0.1734723E-17  0.9765625E-03
    1       -3.277800   1.000000
    2       -1.550764   1.000000
    3       -0.213067   1.000000
    4        3.189281   1.000000
    5        4.833984   1.000000
    6        6.426331   0.000000
    7        7.103160   0.000000
    8        8.487714   0.000000
    9       11.590516   0.000000
   10       12.222451   0.000000
   11       14.122316   0.000000
   12       16.784302   0.000000
 
  0.3750000E+00  0.2500000E+00  0.0000000E+00  0.9765625E-03
    1       -2.551005   1.000000
    2       -2.275941   1.000000
    3       -0.349036   1.000000
    4        3.315624   1.000000
    5        4.615986   1.000000
    6        6.401209   0.000000
    7        7.442839   0.000000
    8        8.232159   0.000000
    9       11.678371   0.000000
   10       12.391312   0.000000
   11       14.334692   0.000000
   12       16.138520   0.000000
 
  0.4375000E+00  0.2500000E+00  0.3469447E-17  0.9765625E-03
    1       -3.283617   1.000000
    2       -1.543951   1.000000
    3       -0.217827   1.000000
    4        3.194655   1.000000
    5        4.836021   1.000000
    6        6.429694   0.000000
    7        7.100030   0.000000
    8        8.483683   0.000000
    9       11.636114   0.000000
   10       12.201474   0.000000
   11       14.108665   0.000000
   12       16.855430   0.000000
 
  0.5000000E+00  0.2500000E+00 -0.3469447E-17  0.4882812E-03
    1       -4.069666   1.000000
    2       -0.852475   1.000000
    3        0.265502   1.000000
    4        2.975279   1.000000
    5        5.331437   1.000000
    6        6.276027   0.000000
    7        6.779455   0.000000
    8        8.751295   0.000000
    9       11.210506   0.000000
   10       12.075198   0.000000
   11       13.681489   0.000000
   12       16.247810   0.000000
 
  0.0000000E+00  0.3125000E+00 -0.1734723E-17  0.4882812E-03
    1       -5.550252   1.000000
    2        0.004706   1.000000
    3        2.623529   1.000000
    4        3.246448   1.000000
    5        4.157029   1.000000
    6        7.163421   0.000000
    7        7.730295   0.000000
    8        8.205997   0.000000
    9        9.027109   0.000000
   10       12.489012   0.000000
   11       12.673166   0.000000
   12       14.065688   0.000000
 
  0.6250000E-01  0.3125000E+00 -0.3469447E-17  0.9765625E-03
    1       -5.152911   1.000000
    2       -0.504638   1.000000
    3        2.592084   1.000000
    4        2.714217   1.000000
    5        4.490013   1.000000
    6        6.862086   0.000000
    7        7.710444   0.000000
    8        8.454171   0.000000
    9        9.312351   0.000000
   10       12.445744   0.000000
   11       12.718391   0.000000
   12       14.130098   0.000000
 
  0.1250000E+00  0.3125000E+00 -0.3469447E-17  0.9765625E-03
    1       -4.633318   1.000000
    2       -0.937923   1.000000
    3        1.753438   1.000000
    4        2.700479   1.000000
    5        5.093390   1.000000
    6        6.252049   0.000000
    7        7.489626   0.000000
    8        8.744395   0.000000
    9        9.951754   0.000000
   10       12.351083   0.000000
   11       13.028716   0.000000
   12       14.544691   0.000000
 
  0.1875000E+00  0.3125000E+00 -0.3469447E-17  0.9765625E-03
    1       -4.001824   1.000000
    2       -1.282165   1.000000
    3        0.751554   1.000000
    4        2.885353   1.000000
    5        5.502626   1.000000
    6        5.792914   0.999289
    7        7.264230   0.000000
    8        8.759418   0.000000
    9       10.769328   0.000000
   10       12.265587   0.000000
   11       13.497826   0.000000
   12       15.351319   0.000000
 
  0.2500000E+00  0.3125000E+00  0.0000000E+00  0.9765625E-03
    1       -3.276843   1.000000
    2       -1.547622   1.000000
    3       -0.215418   1.000000
    4        3.188773   1.000000
    5        4.834152   1.000000
    6        6.429584   0.000000
    7        7.096329   0.000000
    8        8.486308   0.000000
    9       11.593603   0.000000
   10       12.203608   0.000000
   11       14.113720   0.000000
   12       16.098979   0.000000
 
  0.3125000E+00  0.3125000E+00  0.0000000E+00  0.9765625E-03
    1       -2.509711   1.000000
    2       -1.848528   1.000000
    3       -0.944253   1.000000
    4        3.592372   1.000000
    5        4.225866   1.000000
    6        6.942371   0.000000
    7        7.068254   0.000000
    8        8.082211   0.000000
    9       12.162704   0.000000
   10       12.192920   0.000000
   11       14.783570   0.000000
   12       15.687750   0.000000
 
  0.3750000E+00  0.3125000E+00 -0.3469447E-17  0.4882812E-03
    1       -2.517252   1.000000
    2       -1.840181   1.000000
    3       -0.946996   1.000000
    4        3.595899   1.000000
    5        4.225014   1.000000
    6        6.938951   0.000000
    7        7.073227   0.000000
    8        8.081990   0.000000
    9       12.144262   0.000000
   10       12.229672   0.000000
   11       14.844236   0.000000
   12       16.434571   0.000000
 
  0.0000000E+00  0.3750000E+00 -0.3469447E-17  0.4882812E-03
    1       -4.828229   1.000000
    2       -1.067232   1.000000
    3        2.563614   1.000000
    4        3.084620   1.000000
    5        4.024361   1.000000
    6        7.075693   0.000000
    7        8.135705   0.000000
    8        8.339016   0.000000
    9        9.063086   0.000000
   10       12.438500   0.000000
   11       12.583295   0.000000