       N       E                     dE             d eps       ncg     rms          rms(c)
RMM:   1     0.452734806461E+02    0.45273E+02   -0.24552E+03 13176   0.641E+02
RMM:   2    -0.101168238595E+02   -0.55390E+02   -0.47461E+02 13176   0.151E+02
RMM:   3    -0.244784987369E+02   -0.14362E+02   -0.10082E+02 13176   0.523E+01
RMM:   4    -0.282765167200E+02   -0.37980E+01   -0.24057E+01 13176   0.377E+01
RMM:   5    -0.291996216175E+02   -0.92310E+00   -0.58947E+00 13176   0.145E+01
RMM:   6    -0.294092089034E+02   -0.20959E+00   -0.14243E+00 13176   0.882E+00
RMM:   7    -0.294689806349E+02   -0.59772E-01   -0.46641E-01 13176   0.371E+00
RMM:   8    -0.294868782621E+02   -0.17898E-01   -0.13436E-01 13176   0.243E+00
RMM:   9    -0.294946760735E+02   -0.77978E-02   -0.69199E-02 29080   0.105E+00
RMM:  10    -0.294950424386E+02   -0.36637E-03   -0.34707E-03 28741   0.188E-01
RMM:  11    -0.294950502926E+02   -0.78540E-05   -0.80231E-05 25502   0.303E-02
RMM:  12    -0.294950507124E+02   -0.41980E-06   -0.35600E-06 21345   0.610E-03    0.198E+01
RMM:  13    -0.242553032819E+02    0.52397E+01   -0.94182E+00 26352   0.175E+01    0.434E+00
RMM:  14    -0.241641326208E+02    0.91171E-01   -0.15870E-01 26374   0.240E+00    0.346E+00
RMM:  15    -0.241398180447E+02    0.24315E-01   -0.37841E-02 26352   0.961E-01    0.608E-01
RMM:  16    -0.241319087055E+02    0.79093E-02   -0.10100E-02 26352   0.549E-01    0.117E-01
RMM:  17    -0.241317876692E+02    0.12104E-03   -0.24061E-04 26361   0.923E-02    0.480E-02
RMM:  18    -0.241317350250E+02    0.52644E-04   -0.67001E-05 26352   0.456E-02    0.607E-03
RMM:  19    -0.241317333771E+02    0.16479E-05   -0.13823E-06 21312   0.619E-03    0.142E-03
RMM:  20    -0.241317329905E+02    0.38653E-06   -0.81622E-08 16601   0.224E-03
   1 F= -.24131733E+02 E0= -.24131506E+02  d E =-.241317E+02
       N       E                     dE             d eps       ncg     rms          rms(c)
RMM:   1    -0.241317386033E+02   -0.52262E-05   -0.58609E-04 26351   0.158E-01    0.783E-03
RMM:   2    -0.241317369671E+02    0.16363E-05   -0.32688E-06 20958   0.175E-02    0.436E-03
RMM:   3    -0.241317363676E+02    0.59943E-06   -0.17060E-06 17727   0.702E-03
   2 F= -.24131736E+02 E0= -.24131510E+02  d E =-.337708E-05
