<?xml version="1.0" encoding="ISO-8859-1"?>
<modeling>
 <generator>
  <i name="program" type="string">vasp </i>
  <i name="version" type="string">5.4.4.18Apr17-6-g9f103f2a35  </i>
  <i name="subversion" type="string">(build Nov 22 2017 20:28:56) complex            parallel </i>
  <i name="platform" type="string">LinuxIFC </i>
  <i name="date" type="string">2019 09 11 </i>
  <i name="time" type="string">22:49:20 </i>
 </generator>
 <incar>
  <i type="int" name="ISTART">     0</i>
  <i type="string" name="PREC">accurate</i>
  <i type="int" name="IALGO">    48</i>
  <i type="string" name="ALGO"> Very Fast</i>
  <i type="int" name="NSIM">     4</i>
  <i type="int" name="IBRION">     1</i>
  <i name="EDIFF">      0.00000100</i>
  <i type="int" name="NSW">    50</i>
  <i type="int" name="ISIF">     2</i>
  <i type="int" name="ISYM">     2</i>
  <i name="ENCUT">    600.00000000</i>
  <i name="POTIM">      0.50000000</i>
  <i type="logical" name="LPLANE"> T  </i>
  <i type="int" name="ISMEAR">     0</i>
  <i name="SIGMA">      0.05000000</i>
  <i type="logical" name="LWAVE"> F  </i>
  <i type="logical" name="LCHARG"> F  </i>
  <v type="int" name="KPOINT_BSE">    -1     0     0     0</v>
 </incar>
 <structure name="primitive_cell" >
  <crystal>
   <varray name="basis" >
    <v>       3.03293523       0.00000000       0.00000000 </v>
    <v>      -1.51646762       2.62659896       0.07879797 </v>
    <v>       0.00000000       0.09677069       3.41923088 </v>
   </varray>
   <i name="volume">     27.21550730 </i>
   <varray name="rec_basis" >
    <v>       0.32971360       0.19052200      -0.00539213 </v>
    <v>       0.00000000       0.38104400      -0.01078426 </v>
    <v>       0.00000000      -0.00878136       0.29271196 </v>
   </varray>
  </crystal>
  <varray name="positions" >
   <v>       0.00000000       0.00000000       0.00000000 </v>
   <v>       0.33333333      -0.33333333      -0.50000000 </v>
   <v>      -0.33333333       0.33333333      -0.50000000 </v>
  </varray>
 </structure>
 <varray name="primitive_index" >
  <v type="int" >        1 </v>
  <v type="int" >        2 </v>
  <v type="int" >        3 </v>
 </varray>
 <kpoints>
  <generation param="Gamma">
   <v type="int" name="divisions">      16       16       16 </v>
   <v name="usershift">      0.00000000       0.00000000       0.00000000 </v>
   <v name="genvec1">      0.06250000      -0.00000000      -0.00000000 </v>
   <v name="genvec2">      0.00000000       0.06250000      -0.00000000 </v>
   <v name="genvec3">      0.00000000       0.00000000       0.06250000 </v>
   <v name="shift">      0.00000000       0.00000000       0.00000000 </v>
  </generation>
  <varray name="kpointlist" >
   <v>       0.00000000       0.00000000       0.00000000 </v>
   <v>       0.06250000      -0.00000000      -0.00000000 </v>
   <v>       0.12500000      -0.00000000      -0.00000000 </v>
   <v>       0.18750000      -0.00000000      -0.00000000 </v>
   <v>       0.25000000      -0.00000000      -0.00000000 </v>
   <v>       0.31250000      -0.00000000      -0.00000000 </v>
   <v>       0.37500000      -0.00000000      -0.00000000 </v>
   <v>       0.43750000       0.00000000       0.00000000 </v>
   <v>       0.50000000      -0.00000000      -0.00000000 </v>
   <v>       0.00000000       0.06250000      -0.00000000 </v>
   <v>       0.06250000       0.06250000      -0.00000000 </v>
   <v>       0.12500000       0.06250000      -0.00000000 </v>
   <v>       0.18750000       0.06250000      -0.00000000 </v>
   <v>       0.25000000       0.06250000      -0.00000000 </v>
   <v>       0.31250000       0.06250000       0.00000000 </v>
   <v>       0.37500000       0.06250000      -0.00000000 </v>
   <v>       0.43750000       0.06250000      -0.00000000 </v>
   <v>       0.50000000       0.06250000      -0.00000000 </v>
   <v>      -0.43750000       0.06250000       0.00000000 </v>
   <v>      -0.37500000       0.06250000       0.00000000 </v>
   <v>      -0.31250000       0.06250000       0.00000000 </v>
   <v>      -0.25000000       0.06250000       0.00000000 </v>
   <v>      -0.18750000       0.06250000       0.00000000 </v>
   <v>      -0.12500000       0.06250000       0.00000000 </v>
   <v>       0.00000000       0.12500000      -0.00000000 </v>
   <v>       0.06250000       0.12500000      -0.00000000 </v>
   <v>       0.12500000       0.12500000      -0.00000000 </v>
   <v>       0.18750000       0.12500000       0.00000000 </v>
   <v>       0.25000000       0.12500000      -0.00000000 </v>
   <v>       0.31250000       0.12500000      -0.00000000 </v>
   <v>       0.37500000       0.12500000      -0.00000000 </v>
   <v>       0.43750000       0.12500000      -0.00000000 </v>
   <v>       0.50000000       0.12500000      -0.00000000 </v>
   <v>      -0.43750000       0.12500000       0.00000000 </v>
   <v>      -0.37500000       0.12500000       0.00000000 </v>
   <v>      -0.31250000       0.12500000       0.00000000 </v>
   <v>      -0.25000000       0.12500000       0.00000000 </v>
   <v>       0.00000000       0.18750000      -0.00000000 </v>
   <v>       0.06250000       0.18750000       0.00000000 </v>
   <v>       0.12500000       0.18750000       0.00000000 </v>
   <v>       0.18750000       0.18750000       0.00000000 </v>
   <v>       0.25000000       0.18750000      -0.00000000 </v>
   <v>       0.31250000       0.18750000      -0.00000000 </v>
   <v>       0.37500000       0.18750000      -0.00000000 </v>
   <v>       0.43750000       0.18750000      -0.00000000 </v>
   <v>       0.50000000       0.18750000       0.00000000 </v>
   <v>      -0.43750000       0.18750000       0.00000000 </v>
   <v>      -0.37500000       0.18750000       0.00000000 </v>
   <v>       0.00000000       0.25000000      -0.00000000 </v>
   <v>       0.06250000       0.25000000      -0.00000000 </v>
   <v>       0.12500000       0.25000000      -0.00000000 </v>
   <v>       0.18750000       0.25000000      -0.00000000 </v>
   <v>       0.25000000       0.25000000      -0.00000000 </v>
   <v>       0.31250000       0.25000000      -0.00000000 </v>
   <v>       0.37500000       0.25000000       0.00000000 </v>
   <v>       0.43750000       0.25000000       0.00000000 </v>
   <v>       0.50000000       0.25000000      -0.00000000 </v>
   <v>       0.00000000       0.31250000      -0.00000000 </v>
   <v>       0.06250000       0.31250000      -0.00000000 </v>
   <v>       0.12500000       0.31250000      -0.00000000 </v>
   <v>       0.18750000       0.31250000      -0.00000000 </v>
   <v>       0.25000000       0.31250000       0.00000000 </v>
   <v>       0.31250000       0.31250000       0.00000000 </v>
   <v>       0.37500000       0.31250000      -0.00000000 </v>
   <v>       0.00000000       0.37500000      -0.00000000 </v>
   <v>       0.06250000       0.37500000       0.00000000 </v>
   <v>       0.12500000       0.37500000       0.00000000 </v>
   <v>       0.18750000       0.37500000      -0.00000000 </v>
   <v>       0.25000000       0.37500000       0.00000000 </v>
   <v>       0.00000000       0.43750000       0.00000000 </v>
   <v>       0.06250000       0.43750000       0.00000000 </v>
   <v>       0.12500000       0.43750000      -0.00000000 </v>
   <v>       0.00000000       0.50000000      -0.00000000 </v>
   <v>       0.00000000       0.00000000       0.06250000 </v>
   <v>       0.06250000      -0.00000000       0.06250000 </v>
   <v>       0.12500000      -0.00000000       0.06250000 </v>
   <v>       0.18750000      -0.00000000       0.06250000 </v>
   <v>       0.25000000      -0.00000000       0.06250000 </v>
   <v>       0.31250000      -0.00000000       0.06250000 </v>
   <v>       0.37500000      -0.00000000       0.06250000 </v>
   <v>       0.43750000      -0.00000000       0.06250000 </v>
   <v>       0.50000000      -0.00000000       0.06250000 </v>
   <v>      -0.43750000       0.00000000       0.06250000 </v>
   <v>      -0.37500000       0.00000000       0.06250000 </v>
   <v>      -0.31250000       0.00000000       0.06250000 </v>
   <v>      -0.25000000       0.00000000       0.06250000 </v>
   <v>      -0.18750000       0.00000000       0.06250000 </v>
   <v>      -0.12500000       0.00000000       0.06250000 </v>
   <v>      -0.06250000       0.00000000       0.06250000 </v>
   <v>       0.00000000       0.06250000       0.06250000 </v>
   <v>       0.06250000       0.06250000       0.06250000 </v>
   <v>       0.12500000       0.06250000       0.06250000 </v>
   <v>       0.18750000       0.06250000       0.06250000 </v>
   <v>       0.25000000       0.06250000       0.06250000 </v>
   <v>       0.31250000       0.06250000       0.06250000 </v>
   <v>       0.37500000       0.06250000       0.06250000 </v>
   <v>       0.43750000       0.06250000       0.06250000 </v>
   <v>       0.50000000       0.06250000       0.06250000 </v>
   <v>      -0.43750000       0.06250000       0.06250000 </v>
   <v>      -0.37500000       0.06250000       0.06250000 </v>
   <v>      -0.31250000       0.06250000       0.06250000 </v>
   <v>      -0.25000000       0.06250000       0.06250000 </v>
   <v>      -0.18750000       0.06250000       0.06250000 </v>
   <v>      -0.12500000       0.06250000       0.06250000 </v>
   <v>       0.00000000       0.12500000       0.06250000 </v>
   <v>       0.06250000       0.12500000       0.06250000 </v>
   <v>       0.12500000       0.12500000       0.06250000 </v>
   <v>       0.18750000       0.12500000       0.06250000 </v>
   <v>       0.25000000       0.12500000       0.06250000 </v>
   <v>       0.31250000       0.12500000       0.06250000 </v>
   <v>       0.37500000       0.12500000       0.06250000 </v>
   <v>       0.43750000       0.12500000       0.06250000 </v>
   <v>       0.50000000       0.12500000       0.06250000 </v>
   <v>      -0.43750000       0.12500000       0.06250000 </v>
   <v>      -0.37500000       0.12500000       0.06250000 </v>
   <v>      -0.31250000       0.12500000       0.06250000 </v>
   <v>      -0.25000000       0.12500000       0.06250000 </v>
   <v>      -0.18750000       0.12500000       0.06250000 </v>
   <v>       0.00000000       0.18750000       0.06250000 </v>
   <v>       0.06250000       0.18750000       0.06250000 </v>
   <v>       0.12500000       0.18750000       0.06250000 </v>
   <v>       0.18750000       0.18750000       0.06250000 </v>
   <v>       0.25000000       0.18750000       0.06250000 </v>
   <v>       0.31250000       0.18750000       0.06250000 </v>
   <v>       0.37500000       0.18750000       0.06250000 </v>
   <v>       0.43750000       0.18750000       0.06250000 </v>
   <v>       0.50000000       0.18750000       0.06250000 </v>
   <v>      -0.43750000       0.18750000       0.06250000 </v>
   <v>      -0.37500000       0.18750000       0.06250000 </v>
   <v>      -0.31250000       0.18750000       0.06250000 </v>
   <v>      -0.25000000       0.18750000       0.06250000 </v>
   <v>       0.00000000       0.25000000       0.06250000 </v>
   <v>       0.06250000       0.25000000       0.06250000 </v>
   <v>       0.12500000       0.25000000       0.06250000 </v>
   <v>       0.18750000       0.25000000       0.06250000 </v>
   <v>       0.25000000       0.25000000       0.06250000 </v>
   <v>       0.31250000       0.25000000       0.06250000 </v>
   <v>       0.37500000       0.25000000       0.06250000 </v>
   <v>       0.43750000       0.25000000       0.06250000 </v>
   <v>       0.50000000       0.25000000       0.06250000 </v>
   <v>      -0.43750000       0.25000000       0.06250000 </v>
   <v>      -0.37500000       0.25000000       0.06250000 </v>
   <v>      -0.31250000       0.25000000       0.06250000 </v>
   <v>       0.00000000       0.31250000       0.06250000 </v>
   <v>       0.06250000       0.31250000       0.06250000 </v>
   <v>       0.12500000       0.31250000       0.06250000 </v>
   <v>       0.18750000       0.31250000       0.06250000 </v>
   <v>       0.25000000       0.31250000       0.06250000 </v>
   <v>       0.31250000       0.31250000       0.06250000 </v>
   <v>       0.37500000       0.31250000       0.06250000 </v>
   <v>       0.43750000       0.31250000       0.06250000 </v>
   <v>       0.50000000       0.31250000       0.06250000 </v>
   <v>      -0.43750000       0.31250000       0.06250000 </v>
   <v>      -0.37500000       0.31250000       0.06250000 </v>
   <v>       0.00000000       0.37500000       0.06250000 </v>
   <v>       0.06250000       0.37500000       0.06250000 </v>
   <v>       0.12500000       0.37500000       0.06250000 </v>
   <v>       0.18750000       0.37500000       0.06250000 </v>
   <v>       0.25000000       0.37500000       0.06250000 </v>
   <v>       0.31250000       0.37500000       0.06250000 </v>
   <v>       0.37500000       0.37500000       0.06250000 </v>
   <v>       0.43750000       0.37500000       0.06250000 </v>
   <v>       0.50000000       0.37500000       0.06250000 </v>
   <v>      -0.43750000       0.37500000       0.06250000 </v>
   <v>       0.00000000       0.43750000       0.06250000 </v>
   <v>       0.06250000       0.43750000       0.06250000 </v>
   <v>       0.12500000       0.43750000       0.06250000 </v>
   <v>       0.18750000       0.43750000       0.06250000 </v>
   <v>       0.25000000       0.43750000       0.06250000 </v>
   <v>       0.31250000       0.43750000       0.06250000 </v>
   <v>       0.37500000       0.43750000       0.06250000 </v>
   <v>       0.43750000       0.43750000       0.06250000 </v>
   <v>       0.50000000       0.43750000       0.06250000 </v>
   <v>       0.00000000       0.50000000       0.06250000 </v>
   <v>       0.06250000       0.50000000       0.06250000 </v>
   <v>       0.12500000       0.50000000       0.06250000 </v>
   <v>       0.18750000       0.50000000       0.06250000 </v>
   <v>       0.25000000       0.50000000       0.06250000 </v>
   <v>       0.31250000       0.50000000       0.06250000 </v>
   <v>       0.37500000       0.50000000       0.06250000 </v>
   <v>       0.43750000       0.50000000       0.06250000 </v>
   <v>       0.00000000      -0.43750000       0.06250000 </v>
   <v>       0.06250000      -0.43750000       0.06250000 </v>
   <v>       0.12500000      -0.43750000       0.06250000 </v>
   <v>       0.18750000      -0.43750000       0.06250000 </v>
   <v>       0.25000000      -0.43750000       0.06250000 </v>
   <v>       0.31250000      -0.43750000       0.06250000 </v>
   <v>       0.37500000      -0.43750000       0.06250000 </v>
   <v>       0.00000000      -0.37500000       0.06250000 </v>
   <v>       0.06250000      -0.37500000       0.06250000 </v>
   <v>       0.12500000      -0.37500000       0.06250000 </v>
   <v>       0.18750000      -0.37500000       0.06250000 </v>
   <v>       0.25000000      -0.37500000       0.06250000 </v>
   <v>       0.31250000      -0.37500000       0.06250000 </v>
   <v>       0.00000000      -0.31250000       0.06250000 </v>
   <v>       0.06250000      -0.31250000       0.06250000 </v>
   <v>       0.12500000      -0.31250000       0.06250000 </v>
   <v>       0.18750000      -0.31250000       0.06250000 </v>
   <v>       0.25000000      -0.31250000       0.06250000 </v>
   <v>       0.00000000      -0.25000000       0.06250000 </v>
   <v>       0.06250000      -0.25000000       0.06250000 </v>
   <v>       0.12500000      -0.25000000       0.06250000 </v>
   <v>       0.18750000      -0.25000000       0.06250000 </v>
   <v>       0.00000000      -0.18750000       0.06250000 </v>
   <v>       0.06250000      -0.18750000       0.06250000 </v>
   <v>       0.12500000      -0.18750000       0.06250000 </v>
   <v>       0.00000000      -0.12500000       0.06250000 </v>
   <v>       0.06250000      -0.12500000       0.06250000 </v>
   <v>       0.00000000      -0.06250000       0.06250000 </v>
   <v>       0.00000000       0.00000000       0.12500000 </v>
   <v>       0.06250000      -0.00000000       0.12500000 </v>
   <v>       0.12500000      -0.00000000       0.12500000 </v>
   <v>       0.18750000      -0.00000000       0.12500000 </v>
   <v>       0.25000000      -0.00000000       0.12500000 </v>
   <v>       0.31250000      -0.00000000       0.12500000 </v>
   <v>       0.37500000      -0.00000000       0.12500000 </v>
   <v>       0.43750000      -0.00000000       0.12500000 </v>
   <v>       0.50000000      -0.00000000       0.12500000 </v>
   <v>      -0.43750000      -0.00000000       0.12500000 </v>
   <v>      -0.37500000       0.00000000       0.12500000 </v>
   <v>      -0.31250000       0.00000000       0.12500000 </v>
   <v>      -0.25000000       0.00000000       0.12500000 </v>
   <v>      -0.18750000       0.00000000       0.12500000 </v>
   <v>      -0.12500000       0.00000000       0.12500000 </v>
   <v>      -0.06250000       0.00000000       0.12500000 </v>
   <v>       0.00000000       0.06250000       0.12500000 </v>
   <v>       0.06250000       0.06250000       0.12500000 </v>
   <v>       0.12500000       0.06250000       0.12500000 </v>
   <v>       0.18750000       0.06250000       0.12500000 </v>
   <v>       0.25000000       0.06250000       0.12500000 </v>
   <v>       0.31250000       0.06250000       0.12500000 </v>
   <v>       0.37500000       0.06250000       0.12500000 </v>
   <v>       0.43750000       0.06250000       0.12500000 </v>
   <v>       0.50000000       0.06250000       0.12500000 </v>
   <v>      -0.43750000       0.06250000       0.12500000 </v>
   <v>      -0.37500000       0.06250000       0.12500000 </v>
   <v>      -0.31250000       0.06250000       0.12500000 </v>
   <v>      -0.25000000       0.06250000       0.12500000 </v>
   <v>      -0.18750000       0.06250000       0.12500000 </v>
   <v>      -0.12500000       0.06250000       0.12500000 </v>
   <v>       0.00000000       0.12500000       0.12500000 </v>
   <v>       0.06250000       0.12500000       0.12500000 </v>
   <v>       0.12500000       0.12500000       0.12500000 </v>
   <v>       0.18750000       0.12500000       0.12500000 </v>
   <v>       0.25000000       0.12500000       0.12500000 </v>
   <v>       0.31250000       0.12500000       0.12500000 </v>
   <v>       0.37500000       0.12500000       0.12500000 </v>
   <v>       0.43750000       0.12500000       0.12500000 </v>
   <v>       0.50000000       0.12500000       0.12500000 </v>
   <v>      -0.43750000       0.12500000       0.12500000 </v>
   <v>      -0.37500000       0.12500000       0.12500000 </v>
   <v>      -0.31250000       0.12500000       0.12500000 </v>
   <v>      -0.25000000       0.12500000       0.12500000 </v>
   <v>      -0.18750000       0.12500000       0.12500000 </v>
   <v>       0.00000000       0.18750000       0.12500000 </v>
   <v>       0.06250000       0.18750000       0.12500000 </v>
   <v>       0.12500000       0.18750000       0.12500000 </v>
   <v>       0.18750000       0.18750000       0.12500000 </v>
   <v>       0.25000000       0.18750000       0.12500000 </v>
   <v>       0.31250000       0.18750000       0.12500000 </v>
   <v>       0.37500000       0.18750000       0.12500000 </v>
   <v>       0.43750000       0.18750000       0.12500000 </v>
   <v>       0.50000000       0.18750000       0.12500000 </v>
   <v>      -0.43750000       0.18750000       0.12500000 </v>
   <v>      -0.37500000       0.18750000       0.12500000 </v>
   <v>      -0.31250000       0.18750000       0.12500000 </v>
   <v>      -0.25000000       0.18750000       0.12500000 </v>
   <v>       0.00000000       0.25000000       0.12500000 </v>
   <v>       0.06250000       0.25000000       0.12500000 </v>
   <v>       0.12500000       0.25000000       0.12500000 </v>
   <v>       0.18750000       0.25000000       0.12500000 </v>
   <v>       0.25000000       0.25000000       0.12500000 </v>
   <v>       0.31250000       0.25000000       0.12500000 </v>
   <v>       0.37500000       0.25000000       0.12500000 </v>
   <v>       0.43750000       0.25000000       0.12500000 </v>
   <v>       0.50000000       0.25000000       0.12500000 </v>
   <v>      -0.43750000       0.25000000       0.12500000 </v>
   <v>      -0.37500000       0.25000000       0.12500000 </v>
   <v>      -0.31250000       0.25000000       0.12500000 </v>
   <v>       0.00000000       0.31250000       0.12500000 </v>
   <v>       0.06250000       0.31250000       0.12500000 </v>
   <v>       0.12500000       0.31250000       0.12500000 </v>
   <v>       0.18750000       0.31250000       0.12500000 </v>
   <v>       0.25000000       0.31250000       0.12500000 </v>
   <v>       0.31250000       0.31250000       0.12500000 </v>
   <v>       0.37500000       0.31250000       0.12500000 </v>
   <v>       0.43750000       0.31250000       0.12500000 </v>
   <v>       0.50000000       0.31250000       0.12500000 </v>
   <v>      -0.43750000       0.31250000       0.12500000 </v>
   <v>      -0.37500000       0.31250000       0.12500000 </v>
   <v>       0.00000000       0.37500000       0.12500000 </v>
   <v>       0.06250000       0.37500000       0.12500000 </v>
   <v>       0.12500000       0.37500000       0.12500000 </v>
   <v>       0.18750000       0.37500000       0.12500000 </v>
   <v>       0.25000000       0.37500000       0.12500000 </v>
   <v>       0.31250000       0.37500000       0.12500000 </v>
   <v>       0.37500000       0.37500000       0.12500000 </v>
   <v>       0.43750000       0.37500000       0.12500000 </v>
   <v>       0.50000000       0.37500000       0.12500000 </v>
   <v>      -0.43750000       0.37500000       0.12500000 </v>
   <v>       0.00000000       0.43750000       0.12500000 </v>
   <v>       0.06250000       0.43750000       0.12500000 </v>
   <v>       0.12500000       0.43750000       0.12500000 </v>
   <v>       0.18750000       0.43750000       0.12500000 </v>
   <v>       0.25000000       0.43750000       0.12500000 </v>
   <v>       0.31250000       0.43750000       0.12500000 </v>
   <v>       0.37500000       0.43750000       0.12500000 </v>
   <v>       0.43750000       0.43750000       0.12500000 </v>
   <v>       0.50000000       0.43750000       0.12500000 </v>
   <v>       0.00000000       0.50000000       0.12500000 </v>
   <v>       0.06250000       0.50000000       0.12500000 </v>
   <v>       0.12500000       0.50000000       0.12500000 </v>
   <v>       0.18750000       0.50000000       0.12500000 </v>
   <v>       0.25000000       0.50000000       0.12500000 </v>
   <v>       0.31250000       0.50000000       0.12500000 </v>
   <v>       0.37500000       0.50000000       0.12500000 </v>
   <v>       0.43750000       0.50000000       0.12500000 </v>
   <v>       0.00000000      -0.43750000       0.12500000 </v>
   <v>       0.06250000      -0.43750000       0.12500000 </v>
   <v>       0.12500000      -0.43750000       0.12500000 </v>
   <v>       0.18750000      -0.43750000       0.12500000 </v>
   <v>       0.25000000      -0.43750000       0.12500000 </v>
   <v>       0.31250000      -0.43750000       0.12500000 </v>
   <v>       0.37500000      -0.43750000       0.12500000 </v>
   <v>       0.00000000      -0.37500000       0.12500000 </v>
   <v>       0.06250000      -0.37500000       0.12500000 </v>
   <v>       0.12500000      -0.37500000       0.12500000 </v>
   <v>       0.18750000      -0.37500000       0.12500000 </v>
   <v>       0.25000000      -0.37500000       0.12500000 </v>
   <v>       0.31250000      -0.37500000       0.12500000 </v>
   <v>       0.00000000      -0.31250000       0.12500000 </v>
   <v>       0.06250000      -0.31250000       0.12500000 </v>
   <v>       0.12500000      -0.31250000       0.12500000 </v>
   <v>       0.18750000      -0.31250000       0.12500000 </v>
   <v>       0.25000000      -0.31250000       0.12500000 </v>
   <v>       0.00000000      -0.25000000       0.12500000 </v>
   <v>       0.06250000      -0.25000000       0.12500000 </v>
   <v>       0.12500000      -0.25000000       0.12500000 </v>
   <v>       0.18750000      -0.25000000       0.12500000 </v>
   <v>       0.00000000      -0.18750000       0.12500000 </v>
   <v>       0.06250000      -0.18750000       0.12500000 </v>
   <v>       0.12500000      -0.18750000       0.12500000 </v>
   <v>       0.00000000      -0.12500000       0.12500000 </v>
   <v>       0.06250000      -0.12500000       0.12500000 </v>
   <v>       0.00000000      -0.06250000       0.12500000 </v>
   <v>       0.00000000       0.00000000       0.18750000 </v>
   <v>       0.06250000      -0.00000000       0.18750000 </v>
   <v>       0.12500000      -0.00000000       0.18750000 </v>
   <v>       0.18750000       0.00000000       0.18750000 </v>
   <v>       0.25000000      -0.00000000       0.18750000 </v>
   <v>       0.31250000      -0.00000000       0.18750000 </v>
   <v>       0.37500000      -0.00000000       0.18750000 </v>
   <v>       0.43750000      -0.00000000       0.18750000 </v>
   <v>       0.50000000      -0.00000000       0.18750000 </v>
   <v>      -0.43750000      -0.00000000       0.18750000 </v>
   <v>      -0.37500000      -0.00000000       0.18750000 </v>
   <v>      -0.31250000       0.00000000       0.18750000 </v>
   <v>      -0.25000000       0.00000000       0.18750000 </v>
   <v>      -0.18750000       0.00000000       0.18750000 </v>
   <v>      -0.12500000      -0.00000000       0.18750000 </v>
   <v>      -0.06250000       0.00000000       0.18750000 </v>
   <v>       0.00000000       0.06250000       0.18750000 </v>
   <v>       0.06250000       0.06250000       0.18750000 </v>
   <v>       0.12500000       0.06250000       0.18750000 </v>
   <v>       0.18750000       0.06250000       0.18750000 </v>
   <v>       0.25000000       0.06250000       0.18750000 </v>
   <v>       0.31250000       0.06250000       0.18750000 </v>
   <v>       0.37500000       0.06250000       0.18750000 </v>
   <v>       0.43750000       0.06250000       0.18750000 </v>
   <v>       0.50000000       0.06250000       0.18750000 </v>
   <v>      -0.43750000       0.06250000       0.18750000 </v>
   <v>      -0.37500000       0.06250000       0.18750000 </v>
   <v>      -0.31250000       0.06250000       0.18750000 </v>
   <v>      -0.25000000       0.06250000       0.18750000 </v>
   <v>      -0.18750000       0.06250000       0.18750000 </v>
   <v>      -0.12500000       0.06250000       0.18750000 </v>
   <v>       0.00000000       0.12500000       0.18750000 </v>
   <v>       0.06250000       0.12500000       0.18750000 </v>
   <v>       0.12500000       0.12500000       0.18750000 </v>
   <v>       0.18750000       0.12500000       0.18750000 </v>
   <v>       0.25000000       0.12500000       0.18750000 </v>
   <v>       0.31250000       0.12500000       0.18750000 </v>
   <v>       0.37500000       0.12500000       0.18750000 </v>
   <v>       0.43750000       0.12500000       0.18750000 </v>
   <v>       0.50000000       0.12500000       0.18750000 </v>
   <v>      -0.43750000       0.12500000       0.18750000 </v>
   <v>      -0.37500000       0.12500000       0.18750000 </v>
   <v>      -0.31250000       0.12500000       0.18750000 </v>
   <v>      -0.25000000       0.12500000       0.18750000 </v>
   <v>      -0.18750000       0.12500000       0.18750000 </v>
   <v>       0.00000000       0.18750000       0.18750000 </v>
   <v>       0.06250000       0.18750000       0.18750000 </v>
   <v>       0.12500000       0.18750000       0.18750000 </v>
   <v>       0.18750000       0.18750000       0.18750000 </v>
   <v>       0.25000000       0.18750000       0.18750000 </v>
   <v>       0.31250000       0.18750000       0.18750000 </v>
   <v>       0.37500000       0.18750000       0.18750000 </v>
   <v>       0.43750000       0.18750000       0.18750000 </v>
   <v>       0.50000000       0.18750000       0.18750000 </v>
   <v>      -0.43750000       0.18750000       0.18750000 </v>
   <v>      -0.37500000       0.18750000       0.18750000 </v>
   <v>      -0.31250000       0.18750000       0.18750000 </v>
   <v>      -0.25000000       0.18750000       0.18750000 </v>
   <v>       0.00000000       0.25000000       0.18750000 </v>
   <v>       0.06250000       0.25000000       0.18750000 </v>
   <v>       0.12500000       0.25000000       0.18750000 </v>
   <v>       0.18750000       0.25000000       0.18750000 </v>
   <v>       0.25000000       0.25000000       0.18750000 </v>
   <v>       0.31250000       0.25000000       0.18750000 </v>
   <v>       0.37500000       0.25000000       0.18750000 </v>
   <v>       0.43750000       0.25000000       0.18750000 </v>
   <v>       0.50000000       0.25000000       0.18750000 </v>
   <v>      -0.43750000       0.25000000       0.18750000 </v>
   <v>      -0.37500000       0.25000000       0.18750000 </v>
   <v>      -0.31250000       0.25000000       0.18750000 </v>
   <v>       0.00000000       0.31250000       0.18750000 </v>
   <v>       0.06250000       0.31250000       0.18750000 </v>
   <v>       0.12500000       0.31250000       0.18750000 </v>
   <v>       0.18750000       0.31250000       0.18750000 </v>
   <v>       0.25000000       0.31250000       0.18750000 </v>
   <v>       0.31250000       0.31250000       0.18750000 </v>
   <v>       0.37500000       0.31250000       0.18750000 </v>
   <v>       0.43750000       0.31250000       0.18750000 </v>
   <v>       0.50000000       0.31250000       0.18750000 </v>
   <v>      -0.43750000       0.31250000       0.18750000 </v>
   <v>      -0.37500000       0.31250000       0.18750000 </v>
   <v>       0.00000000       0.37500000       0.18750000 </v>
   <v>       0.06250000       0.37500000       0.18750000 </v>
   <v>       0.12500000       0.37500000       0.18750000 </v>
   <v>       0.18750000       0.37500000       0.18750000 </v>
   <v>       0.25000000       0.37500000       0.18750000 </v>
   <v>       0.31250000       0.37500000       0.18750000 </v>
   <v>       0.37500000       0.37500000       0.18750000 </v>
   <v>       0.43750000       0.37500000       0.18750000 </v>
   <v>       0.50000000       0.37500000       0.18750000 </v>
   <v>      -0.43750000       0.37500000       0.18750000 </v>
   <v>       0.00000000       0.43750000       0.18750000 </v>
   <v>       0.06250000       0.43750000       0.18750000 </v>
   <v>       0.12500000       0.43750000       0.18750000 </v>
   <v>       0.18750000       0.43750000       0.18750000 </v>
   <v>       0.25000000       0.43750000       0.18750000 </v>
   <v>       0.31250000       0.43750000       0.18750000 </v>
   <v>       0.37500000       0.43750000       0.18750000 </v>
   <v>       0.43750000       0.43750000       0.18750000 </v>
   <v>       0.50000000       0.43750000       0.18750000 </v>
   <v>       0.00000000       0.50000000       0.18750000 </v>
   <v>       0.06250000       0.50000000       0.18750000 </v>
   <v>       0.12500000       0.50000000       0.18750000 </v>
   <v>       0.18750000       0.50000000       0.18750000 </v>
   <v>       0.25000000       0.50000000       0.18750000 </v>
   <v>       0.31250000       0.50000000       0.18750000 </v>
   <v>       0.37500000       0.50000000       0.18750000 </v>
   <v>       0.43750000       0.50000000       0.18750000 </v>
   <v>       0.00000000      -0.43750000       0.18750000 </v>
   <v>       0.06250000      -0.43750000       0.18750000 </v>
   <v>       0.12500000      -0.43750000       0.18750000 </v>
   <v>       0.18750000      -0.43750000       0.18750000 </v>
   <v>       0.25000000      -0.43750000       0.18750000 </v>
   <v>       0.31250000      -0.43750000       0.18750000 </v>
   <v>       0.37500000      -0.43750000       0.18750000 </v>
   <v>       0.00000000      -0.37500000       0.18750000 </v>
   <v>       0.06250000      -0.37500000       0.18750000 </v>
   <v>       0.12500000      -0.37500000       0.18750000 </v>
   <v>       0.18750000      -0.37500000       0.18750000 </v>
   <v>       0.25000000      -0.37500000       0.18750000 </v>
   <v>       0.31250000      -0.37500000       0.18750000 </v>
   <v>       0.00000000      -0.31250000       0.18750000 </v>
   <v>       0.06250000      -0.31250000       0.18750000 </v>
   <v>       0.12500000      -0.31250000       0.18750000 </v>
   <v>       0.18750000      -0.31250000       0.18750000 </v>
   <v>       0.25000000      -0.31250000       0.18750000 </v>
   <v>       0.00000000      -0.25000000       0.18750000 </v>
   <v>       0.06250000      -0.25000000       0.18750000 </v>
   <v>       0.12500000      -0.25000000       0.18750000 </v>
   <v>       0.18750000      -0.25000000       0.18750000 </v>
   <v>       0.00000000      -0.18750000       0.18750000 </v>
   <v>       0.06250000      -0.18750000       0.18750000 </v>
   <v>       0.12500000      -0.18750000       0.18750000 </v>
   <v>       0.00000000      -0.12500000       0.18750000 </v>
   <v>       0.06250000      -0.12500000       0.18750000 </v>
   <v>       0.00000000      -0.06250000       0.18750000 </v>
   <v>       0.00000000       0.00000000       0.25000000 </v>
   <v>       0.06250000      -0.00000000       0.25000000 </v>
   <v>       0.12500000      -0.00000000       0.25000000 </v>
   <v>       0.18750000      -0.00000000       0.25000000 </v>
   <v>       0.25000000      -0.00000000       0.25000000 </v>
   <v>       0.31250000      -0.00000000       0.25000000 </v>
   <v>       0.37500000      -0.00000000       0.25000000 </v>
   <v>       0.43750000       0.00000000       0.25000000 </v>
   <v>       0.50000000      -0.00000000       0.25000000 </v>
   <v>      -0.43750000       0.00000000       0.25000000 </v>
   <v>      -0.37500000       0.00000000       0.25000000 </v>
   <v>      -0.31250000       0.00000000       0.25000000 </v>
   <v>      -0.25000000       0.00000000       0.25000000 </v>
   <v>      -0.18750000       0.00000000       0.25000000 </v>
   <v>      -0.12500000       0.00000000       0.25000000 </v>
   <v>      -0.06250000       0.00000000       0.25000000 </v>
   <v>       0.00000000       0.06250000       0.25000000 </v>
   <v>       0.06250000       0.06250000       0.25000000 </v>
   <v>       0.12500000       0.06250000       0.25000000 </v>
   <v>       0.18750000       0.06250000       0.25000000 </v>
   <v>       0.25000000       0.06250000       0.25000000 </v>
   <v>       0.31250000       0.06250000       0.25000000 </v>
   <v>       0.37500000       0.06250000       0.25000000 </v>
   <v>       0.43750000       0.06250000       0.25000000 </v>
   <v>       0.50000000       0.06250000       0.25000000 </v>
   <v>      -0.43750000       0.06250000       0.25000000 </v>
   <v>      -0.37500000       0.06250000       0.25000000 </v>
   <v>      -0.31250000       0.06250000       0.25000000 </v>
   <v>      -0.25000000       0.06250000       0.25000000 </v>
   <v>      -0.18750000       0.06250000       0.25000000 </v>
   <v>      -0.12500000       0.06250000       0.25000000 </v>
   <v>       0.00000000       0.12500000       0.25000000 </v>
   <v>       0.06250000       0.12500000       0.25000000 </v>
   <v>       0.12500000       0.12500000       0.25000000 </v>
   <v>       0.18750000       0.12500000       0.25000000 </v>
   <v>       0.25000000       0.12500000       0.25000000 </v>
   <v>       0.31250000       0.12500000       0.25000000 </v>
   <v>       0.37500000       0.12500000       0.25000000 </v>
   <v>       0.43750000       0.12500000       0.25000000 </v>
   <v>       0.50000000       0.12500000       0.25000000 </v>
   <v>      -0.43750000       0.12500000       0.25000000 </v>
   <v>      -0.37500000       0.12500000       0.25000000 </v>
   <v>      -0.31250000       0.12500000       0.25000000 </v>
   <v>      -0.25000000       0.12500000       0.25000000 </v>
   <v>      -0.18750000       0.12500000       0.25000000 </v>
   <v>       0.00000000       0.18750000       0.25000000 </v>
   <v>       0.06250000       0.18750000       0.25000000 </v>
   <v>       0.12500000       0.18750000       0.25000000 </v>
   <v>       0.18750000       0.18750000       0.25000000 </v>
   <v>       0.25000000       0.18750000       0.25000000 </v>
   <v>       0.31250000       0.18750000       0.25000000 </v>
   <v>       0.37500000       0.18750000       0.25000000 </v>
   <v>       0.43750000       0.18750000       0.25000000 </v>
   <v>       0.50000000       0.18750000       0.25000000 </v>
   <v>      -0.43750000       0.18750000       0.25000000 </v>
   <v>      -0.37500000       0.18750000       0.25000000 </v>
   <v>      -0.31250000       0.18750000       0.25000000 </v>
   <v>      -0.25000000       0.18750000       0.25000000 </v>
   <v>       0.00000000       0.25000000       0.25000000 </v>
   <v>       0.06250000       0.25000000       0.25000000 </v>
   <v>       0.12500000       0.25000000       0.25000000 </v>
   <v>       0.18750000       0.25000000       0.25000000 </v>
   <v>       0.25000000       0.25000000       0.25000000 </v>
   <v>       0.31250000       0.25000000       0.25000000 </v>
   <v>       0.37500000       0.25000000       0.25000000 </v>
   <v>       0.43750000       0.25000000       0.25000000 </v>
   <v>       0.50000000       0.25000000       0.25000000 </v>
   <v>      -0.43750000       0.25000000       0.25000000 </v>
   <v>      -0.37500000       0.25000000       0.25000000 </v>
   <v>      -0.31250000       0.25000000       0.25000000 </v>
   <v>       0.00000000       0.31250000       0.25000000 </v>
   <v>       0.06250000       0.31250000       0.25000000 </v>
   <v>       0.12500000       0.31250000       0.25000000 </v>
   <v>       0.18750000       0.31250000       0.25000000 </v>
   <v>       0.25000000       0.31250000       0.25000000 </v>
   <v>       0.31250000       0.31250000       0.25000000 </v>
   <v>       0.37500000       0.31250000       0.25000000 </v>
   <v>       0.43750000       0.31250000       0.25000000 </v>
   <v>       0.50000000       0.31250000       0.25000000 </v>
   <v>      -0.43750000       0.31250000       0.25000000 </v>
   <v>      -0.37500000       0.31250000       0.25000000 </v>
   <v>       0.00000000       0.37500000       0.25000000 </v>
   <v>       0.06250000       0.37500000       0.25000000 </v>
   <v>       0.12500000       0.37500000       0.25000000 </v>
   <v>       0.18750000       0.37500000       0.25000000 </v>
   <v>       0.25000000       0.37500000       0.25000000 </v>
   <v>       0.31250000       0.37500000       0.25000000 </v>
   <v>       0.37500000       0.37500000       0.25000000 </v>
   <v>       0.43750000       0.37500000       0.25000000 </v>
   <v>       0.50000000       0.37500000       0.25000000 </v>
   <v>      -0.43750000       0.37500000       0.25000000 </v>
   <v>       0.00000000       0.43750000       0.25000000 </v>
   <v>       0.06250000       0.43750000       0.25000000 </v>
   <v>       0.12500000       0.43750000       0.25000000 </v>
   <v>       0.18750000       0.43750000       0.25000000 </v>
   <v>       0.25000000       0.43750000       0.25000000 </v>
   <v>       0.31250000       0.43750000       0.25000000 </v>
   <v>       0.37500000       0.43750000       0.25000000 </v>
   <v>       0.43750000       0.43750000       0.25000000 </v>
   <v>       0.50000000       0.43750000       0.25000000 </v>
   <v>       0.00000000       0.50000000       0.25000000 </v>
   <v>       0.06250000       0.50000000       0.25000000 </v>
   <v>       0.12500000       0.50000000       0.25000000 </v>
   <v>       0.18750000       0.50000000       0.25000000 </v>
   <v>       0.25000000       0.50000000       0.25000000 </v>
   <v>       0.31250000       0.50000000       0.25000000 </v>
   <v>       0.37500000       0.50000000       0.25000000 </v>
   <v>       0.43750000       0.50000000       0.25000000 </v>
   <v>       0.00000000      -0.43750000       0.25000000 </v>
   <v>       0.06250000      -0.43750000       0.25000000 </v>
   <v>       0.12500000      -0.43750000       0.25000000 </v>
   <v>       0.18750000      -0.43750000       0.25000000 </v>
   <v>       0.25000000      -0.43750000       0.25000000 </v>
   <v>       0.31250000      -0.43750000       0.25000000 </v>
   <v>       0.37500000      -0.43750000       0.25000000 </v>
   <v>       0.00000000      -0.37500000       0.25000000 </v>
   <v>       0.06250000      -0.37500000       0.25000000 </v>
   <v>       0.12500000      -0.37500000       0.25000000 </v>
   <v>       0.18750000      -0.37500000       0.25000000 </v>
   <v>       0.25000000      -0.37500000       0.25000000 </v>
   <v>       0.31250000      -0.37500000       0.25000000 </v>
   <v>       0.00000000      -0.31250000       0.25000000 </v>
   <v>       0.06250000      -0.31250000       0.25000000 </v>
   <v>       0.12500000      -0.31250000       0.25000000 </v>
   <v>       0.18750000      -0.31250000       0.25000000 </v>
   <v>       0.25000000      -0.31250000       0.25000000 </v>
   <v>       0.00000000      -0.25000000       0.25000000 </v>
   <v>       0.06250000      -0.25000000       0.25000000 </v>
   <v>       0.12500000      -0.25000000       0.25000000 </v>
   <v>       0.18750000      -0.25000000       0.25000000 </v>
   <v>       0.00000000      -0.18750000       0.25000000 </v>
   <v>       0.06250000      -0.18750000       0.25000000 </v>
   <v>       0.12500000      -0.18750000       0.25000000 </v>
   <v>       0.00000000      -0.12500000       0.25000000 </v>
   <v>       0.06250000      -0.12500000       0.25000000 </v>
   <v>       0.00000000      -0.06250000       0.25000000 </v>
   <v>       0.00000000       0.00000000       0.31250000 </v>
   <v>       0.06250000      -0.00000000       0.31250000 </v>
   <v>       0.12500000       0.00000000       0.31250000 </v>
   <v>       0.18750000      -0.00000000       0.31250000 </v>
   <v>       0.25000000      -0.00000000       0.31250000 </v>
   <v>       0.31250000      -0.00000000       0.31250000 </v>
   <v>       0.37500000      -0.00000000       0.31250000 </v>
   <v>       0.43750000       0.00000000       0.31250000 </v>
   <v>       0.50000000       0.00000000       0.31250000 </v>
   <v>      -0.43750000       0.00000000       0.31250000 </v>
   <v>      -0.37500000       0.00000000       0.31250000 </v>
   <v>      -0.31250000       0.00000000       0.31250000 </v>
   <v>      -0.25000000       0.00000000       0.31250000 </v>
   <v>      -0.18750000       0.00000000       0.31250000 </v>
   <v>      -0.12500000       0.00000000       0.31250000 </v>
   <v>      -0.06250000       0.00000000       0.31250000 </v>
   <v>       0.00000000       0.06250000       0.31250000 </v>
   <v>       0.06250000       0.06250000       0.31250000 </v>
   <v>       0.12500000       0.06250000       0.31250000 </v>
   <v>       0.18750000       0.06250000       0.31250000 </v>
   <v>       0.25000000       0.06250000       0.31250000 </v>
   <v>       0.31250000       0.06250000       0.31250000 </v>
   <v>       0.37500000       0.06250000       0.31250000 </v>
   <v>       0.43750000       0.06250000       0.31250000 </v>
   <v>       0.50000000       0.06250000       0.31250000 </v>
   <v>      -0.43750000       0.06250000       0.31250000 </v>
   <v>      -0.37500000       0.06250000       0.31250000 </v>
   <v>      -0.31250000       0.06250000       0.31250000 </v>
   <v>      -0.25000000       0.06250000       0.31250000 </v>
   <v>      -0.18750000       0.06250000       0.31250000 </v>
   <v>      -0.12500000       0.06250000       0.31250000 </v>
   <v>       0.00000000       0.12500000       0.31250000 </v>
   <v>       0.06250000       0.12500000       0.31250000 </v>
   <v>       0.12500000       0.12500000       0.31250000 </v>
   <v>       0.18750000       0.12500000       0.31250000 </v>
   <v>       0.25000000       0.12500000       0.31250000 </v>
   <v>       0.31250000       0.12500000       0.31250000 </v>
   <v>       0.37500000       0.12500000       0.31250000 </v>
   <v>       0.43750000       0.12500000       0.31250000 </v>
   <v>       0.50000000       0.12500000       0.31250000 </v>
   <v>      -0.43750000       0.12500000       0.31250000 </v>
   <v>      -0.37500000       0.12500000       0.31250000 </v>
   <v>      -0.31250000       0.12500000       0.31250000 </v>
   <v>      -0.25000000       0.12500000       0.31250000 </v>
   <v>      -0.18750000       0.12500000       0.31250000 </v>
   <v>       0.00000000       0.18750000       0.31250000 </v>
   <v>       0.06250000       0.18750000       0.31250000 </v>
   <v>       0.12500000       0.18750000       0.31250000 </v>
   <v>       0.18750000       0.18750000       0.31250000 </v>
   <v>       0.25000000       0.18750000       0.31250000 </v>
   <v>       0.31250000       0.18750000       0.31250000 </v>
   <v>       0.37500000       0.18750000       0.31250000 </v>
   <v>       0.43750000       0.18750000       0.31250000 </v>
   <v>       0.50000000       0.18750000       0.31250000 </v>
   <v>      -0.43750000       0.18750000       0.31250000 </v>
   <v>      -0.37500000       0.18750000       0.31250000 </v>
   <v>      -0.31250000       0.18750000       0.31250000 </v>
   <v>      -0.25000000       0.18750000       0.31250000 </v>
   <v>       0.00000000       0.25000000       0.31250000 </v>
   <v>       0.06250000       0.25000000       0.31250000 </v>
   <v>       0.12500000       0.25000000       0.31250000 </v>
   <v>       0.18750000       0.25000000       0.31250000 </v>
   <v>       0.25000000       0.25000000       0.31250000 </v>
   <v>       0.31250000       0.25000000       0.31250000 </v>
   <v>       0.37500000       0.25000000       0.31250000 </v>
   <v>       0.43750000       0.25000000       0.31250000 </v>
   <v>       0.50000000       0.25000000       0.31250000 </v>
   <v>      -0.43750000       0.25000000       0.31250000 </v>
   <v>      -0.37500000       0.25000000       0.31250000 </v>
   <v>      -0.31250000       0.25000000       0.31250000 </v>
   <v>       0.00000000       0.31250000       0.31250000 </v>
   <v>       0.06250000       0.31250000       0.31250000 </v>
   <v>       0.12500000       0.31250000       0.31250000 </v>
   <v>       0.18750000       0.31250000       0.31250000 </v>
   <v>       0.25000000       0.31250000       0.31250000 </v>
   <v>       0.31250000       0.31250000       0.31250000 </v>
   <v>       0.37500000       0.31250000       0.31250000 </v>
   <v>       0.43750000       0.31250000       0.31250000 </v>
   <v>       0.50000000       0.31250000       0.31250000 </v>
   <v>      -0.43750000       0.31250000       0.31250000 </v>
   <v>      -0.37500000       0.31250000       0.31250000 </v>
   <v>       0.00000000       0.37500000       0.31250000 </v>
   <v>       0.06250000       0.37500000       0.31250000 </v>
   <v>       0.12500000       0.37500000       0.31250000 </v>
   <v>       0.18750000       0.37500000       0.31250000 </v>
   <v>       0.25000000       0.37500000       0.31250000 </v>
   <v>       0.31250000       0.37500000       0.31250000 </v>
   <v>       0.37500000       0.37500000       0.31250000 </v>
   <v>       0.43750000       0.37500000       0.31250000 </v>
   <v>       0.50000000       0.37500000       0.31250000 </v>
   <v>      -0.43750000       0.37500000       0.31250000 </v>
   <v>       0.00000000       0.43750000       0.31250000 </v>
   <v>       0.06250000       0.43750000       0.31250000 </v>
   <v>       0.12500000       0.43750000       0.31250000 </v>
   <v>       0.18750000       0.43750000       0.31250000 </v>
   <v>       0.25000000       0.43750000       0.31250000 </v>
   <v>       0.31250000       0.43750000       0.31250000 </v>
   <v>       0.37500000       0.43750000       0.31250000 </v>
   <v>       0.43750000       0.43750000       0.31250000 </v>
   <v>       0.50000000       0.43750000       0.31250000 </v>
   <v>       0.00000000       0.50000000       0.31250000 </v>
   <v>       0.06250000       0.50000000       0.31250000 </v>
   <v>       0.12500000       0.50000000       0.31250000 </v>
   <v>       0.18750000       0.50000000       0.31250000 </v>
   <v>       0.25000000       0.50000000       0.31250000 </v>
   <v>       0.31250000       0.50000000       0.31250000 </v>
   <v>       0.37500000       0.50000000       0.31250000 </v>
   <v>       0.43750000       0.50000000       0.31250000 </v>
   <v>       0.00000000      -0.43750000       0.31250000 </v>
   <v>       0.06250000      -0.43750000       0.31250000 </v>
   <v>       0.12500000      -0.43750000       0.31250000 </v>
   <v>       0.18750000      -0.43750000       0.31250000 </v>
   <v>       0.25000000      -0.43750000       0.31250000 </v>
   <v>       0.31250000      -0.43750000       0.31250000 </v>
   <v>       0.37500000      -0.43750000       0.31250000 </v>
   <v>       0.00000000      -0.37500000       0.31250000 </v>
   <v>       0.06250000      -0.37500000       0.31250000 </v>
   <v>       0.12500000      -0.37500000       0.31250000 </v>
   <v>       0.18750000      -0.37500000       0.31250000 </v>
   <v>       0.25000000      -0.37500000       0.31250000 </v>
   <v>       0.31250000      -0.37500000       0.31250000 </v>
   <v>       0.00000000      -0.31250000       0.31250000 </v>
   <v>       0.06250000      -0.31250000       0.31250000 </v>
   <v>       0.12500000      -0.31250000       0.31250000 </v>
   <v>       0.18750000      -0.31250000       0.31250000 </v>
   <v>       0.25000000      -0.31250000       0.31250000 </v>
   <v>       0.00000000      -0.25000000       0.31250000 </v>
   <v>       0.06250000      -0.25000000       0.31250000 </v>
   <v>       0.12500000      -0.25000000       0.31250000 </v>
   <v>       0.18750000      -0.25000000       0.31250000 </v>
   <v>       0.00000000      -0.18750000       0.31250000 </v>
   <v>       0.06250000      -0.18750000       0.31250000 </v>
   <v>       0.12500000      -0.18750000       0.31250000 </v>
   <v>       0.00000000      -0.12500000       0.31250000 </v>
   <v>       0.06250000      -0.12500000       0.31250000 </v>
   <v>       0.00000000      -0.06250000       0.31250000 </v>
   <v>       0.00000000       0.00000000       0.37500000 </v>
   <v>       0.06250000       0.00000000       0.37500000 </v>
   <v>       0.12500000      -0.00000000       0.37500000 </v>
   <v>       0.18750000       0.00000000       0.37500000 </v>
   <v>       0.25000000      -0.00000000       0.37500000 </v>
   <v>       0.31250000      -0.00000000       0.37500000 </v>
   <v>       0.37500000       0.00000000       0.37500000 </v>
   <v>       0.43750000       0.00000000       0.37500000 </v>
   <v>       0.50000000      -0.00000000       0.37500000 </v>
   <v>      -0.43750000       0.00000000       0.37500000 </v>
   <v>      -0.37500000       0.00000000       0.37500000 </v>
   <v>      -0.31250000       0.00000000       0.37500000 </v>
   <v>      -0.25000000      -0.00000000       0.37500000 </v>
   <v>      -0.18750000       0.00000000       0.37500000 </v>
   <v>      -0.12500000       0.00000000       0.37500000 </v>
   <v>      -0.06250000       0.00000000       0.37500000 </v>
   <v>       0.00000000       0.06250000       0.37500000 </v>
   <v>       0.06250000       0.06250000       0.37500000 </v>
   <v>       0.12500000       0.06250000       0.37500000 </v>
   <v>       0.18750000       0.06250000       0.37500000 </v>
   <v>       0.25000000       0.06250000       0.37500000 </v>
   <v>       0.31250000       0.06250000       0.37500000 </v>
   <v>       0.37500000       0.06250000       0.37500000 </v>
   <v>       0.43750000       0.06250000       0.37500000 </v>
   <v>       0.50000000       0.06250000       0.37500000 </v>
   <v>      -0.43750000       0.06250000       0.37500000 </v>
   <v>      -0.37500000       0.06250000       0.37500000 </v>
   <v>      -0.31250000       0.06250000       0.37500000 </v>
   <v>      -0.25000000       0.06250000       0.37500000 </v>
   <v>      -0.18750000       0.06250000       0.37500000 </v>
   <v>      -0.12500000       0.06250000       0.37500000 </v>
   <v>       0.00000000       0.12500000       0.37500000 </v>
   <v>       0.06250000       0.12500000       0.37500000 </v>
   <v>       0.12500000       0.12500000       0.37500000 </v>
   <v>       0.18750000       0.12500000       0.37500000 </v>
   <v>       0.25000000       0.12500000       0.37500000 </v>
   <v>       0.31250000       0.12500000       0.37500000 </v>
   <v>       0.37500000       0.12500000       0.37500000 </v>
   <v>       0.43750000       0.12500000       0.37500000 </v>
   <v>       0.50000000       0.12500000       0.37500000 </v>
   <v>      -0.43750000       0.12500000       0.37500000 </v>
   <v>      -0.37500000       0.12500000       0.37500000 </v>
   <v>      -0.31250000       0.12500000       0.37500000 </v>
   <v>      -0.25000000       0.12500000       0.37500000 </v>
   <v>      -0.18750000       0.12500000       0.37500000 </v>
   <v>       0.00000000       0.18750000       0.37500000 </v>
   <v>       0.06250000       0.18750000       0.37500000 </v>
   <v>       0.12500000       0.18750000       0.37500000 </v>
   <v>       0.18750000       0.18750000       0.37500000 </v>
   <v>       0.25000000       0.18750000       0.37500000 </v>
   <v>       0.31250000       0.18750000       0.37500000 </v>
   <v>       0.37500000       0.18750000       0.37500000 </v>
   <v>       0.43750000       0.18750000       0.37500000 </v>
   <v>       0.50000000       0.18750000       0.37500000 </v>
   <v>      -0.43750000       0.18750000       0.37500000 </v>
   <v>      -0.37500000       0.18750000       0.37500000 </v>
   <v>      -0.31250000       0.18750000       0.37500000 </v>
   <v>      -0.25000000       0.18750000       0.37500000 </v>
   <v>       0.00000000       0.25000000       0.37500000 </v>
   <v>       0.06250000       0.25000000       0.37500000 </v>
   <v>       0.12500000       0.25000000       0.37500000 </v>
   <v>       0.18750000       0.25000000       0.37500000 </v>
   <v>       0.25000000       0.25000000       0.37500000 </v>
   <v>       0.31250000       0.25000000       0.37500000 </v>
   <v>       0.37500000       0.25000000       0.37500000 </v>
   <v>       0.43750000       0.25000000       0.37500000 </v>
   <v>       0.50000000       0.25000000       0.37500000 </v>
   <v>      -0.43750000       0.25000000       0.37500000 </v>
   <v>      -0.37500000       0.25000000       0.37500000 </v>
   <v>      -0.31250000       0.25000000       0.37500000 </v>
   <v>       0.00000000       0.31250000       0.37500000 </v>
   <v>       0.06250000       0.31250000       0.37500000 </v>
   <v>       0.12500000       0.31250000       0.37500000 </v>
   <v>       0.18750000       0.31250000       0.37500000 </v>
   <v>       0.25000000       0.31250000       0.37500000 </v>
   <v>       0.31250000       0.31250000       0.37500000 </v>
   <v>       0.37500000       0.31250000       0.37500000 </v>
   <v>       0.43750000       0.31250000       0.37500000 </v>
   <v>       0.50000000       0.31250000       0.37500000 </v>
   <v>      -0.43750000       0.31250000       0.37500000 </v>
   <v>      -0.37500000       0.31250000       0.37500000 </v>
   <v>       0.00000000       0.37500000       0.37500000 </v>
   <v>       0.06250000       0.37500000       0.37500000 </v>
   <v>       0.12500000       0.37500000       0.37500000 </v>
   <v>       0.18750000       0.37500000       0.37500000 </v>
   <v>       0.25000000       0.37500000       0.37500000 </v>
   <v>       0.31250000       0.37500000       0.37500000 </v>
   <v>       0.37500000       0.37500000       0.37500000 </v>
   <v>       0.43750000       0.37500000       0.37500000 </v>
   <v>       0.50000000       0.37500000       0.37500000 </v>
   <v>      -0.43750000       0.37500000       0.37500000 </v>
   <v>       0.00000000       0.43750000       0.37500000 </v>
   <v>       0.06250000       0.43750000       0.37500000 </v>
   <v>       0.12500000       0.43750000       0.37500000 </v>
   <v>       0.18750000       0.43750000       0.37500000 </v>
   <v>       0.25000000       0.43750000       0.37500000 </v>
   <v>       0.31250000       0.43750000       0.37500000 </v>
   <v>       0.37500000       0.43750000       0.37500000 </v>
   <v>       0.43750000       0.43750000       0.37500000 </v>
   <v>       0.50000000       0.43750000       0.37500000 </v>
   <v>       0.00000000       0.50000000       0.37500000 </v>
   <v>       0.06250000       0.50000000       0.37500000 </v>
   <v>       0.12500000       0.50000000       0.37500000 </v>
   <v>       0.18750000       0.50000000       0.37500000 </v>
   <v>       0.25000000       0.50000000       0.37500000 </v>
   <v>       0.31250000       0.50000000       0.37500000 </v>
   <v>       0.37500000       0.50000000       0.37500000 </v>
   <v>       0.43750000       0.50000000       0.37500000 </v>
   <v>       0.00000000      -0.43750000       0.37500000 </v>
   <v>       0.06250000      -0.43750000       0.37500000 </v>
   <v>       0.12500000      -0.43750000       0.37500000 </v>
   <v>       0.18750000      -0.43750000       0.37500000 </v>
   <v>       0.25000000      -0.43750000       0.37500000 </v>
   <v>       0.31250000      -0.43750000       0.37500000 </v>
   <v>       0.37500000      -0.43750000       0.37500000 </v>
   <v>       0.00000000      -0.37500000       0.37500000 </v>
   <v>       0.06250000      -0.37500000       0.37500000 </v>
   <v>       0.12500000      -0.37500000       0.37500000 </v>
   <v>       0.18750000      -0.37500000       0.37500000 </v>
   <v>       0.25000000      -0.37500000       0.37500000 </v>
   <v>       0.31250000      -0.37500000       0.37500000 </v>
   <v>       0.00000000      -0.31250000       0.37500000 </v>
   <v>       0.06250000      -0.31250000       0.37500000 </v>
   <v>       0.12500000      -0.31250000       0.37500000 </v>
   <v>       0.18750000      -0.31250000       0.37500000 </v>
   <v>       0.25000000      -0.31250000       0.37500000 </v>
   <v>       0.00000000      -0.25000000       0.37500000 </v>
   <v>       0.06250000      -0.25000000       0.37500000 </v>
   <v>       0.12500000      -0.25000000       0.37500000 </v>
   <v>       0.18750000      -0.25000000       0.37500000 </v>
   <v>       0.00000000      -0.18750000       0.37500000 </v>
   <v>       0.06250000      -0.18750000       0.37500000 </v>
   <v>       0.12500000      -0.18750000       0.37500000 </v>
   <v>       0.00000000      -0.12500000       0.37500000 </v>
   <v>       0.06250000      -0.12500000       0.37500000 </v>
   <v>       0.00000000      -0.06250000       0.37500000 </v>
   <v>       0.00000000       0.00000000       0.43750000 </v>
   <v>       0.06250000      -0.00000000       0.43750000 </v>
   <v>       0.12500000      -0.00000000       0.43750000 </v>
   <v>       0.18750000      -0.00000000       0.43750000 </v>
   <v>       0.25000000       0.00000000       0.43750000 </v>
   <v>       0.31250000      -0.00000000       0.43750000 </v>
   <v>       0.37500000      -0.00000000       0.43750000 </v>
   <v>       0.43750000       0.00000000       0.43750000 </v>
   <v>       0.50000000      -0.00000000       0.43750000 </v>
   <v>      -0.43750000       0.00000000       0.43750000 </v>
   <v>      -0.37500000       0.00000000       0.43750000 </v>
   <v>      -0.31250000       0.00000000       0.43750000 </v>
   <v>      -0.25000000       0.00000000       0.43750000 </v>
   <v>      -0.18750000       0.00000000       0.43750000 </v>
   <v>      -0.12500000       0.00000000       0.43750000 </v>
   <v>      -0.06250000       0.00000000       0.43750000 </v>
   <v>       0.00000000       0.06250000       0.43750000 </v>
   <v>       0.06250000       0.06250000       0.43750000 </v>
   <v>       0.12500000       0.06250000       0.43750000 </v>
   <v>       0.18750000       0.06250000       0.43750000 </v>
   <v>       0.25000000       0.06250000       0.43750000 </v>
   <v>       0.31250000       0.06250000       0.43750000 </v>
   <v>       0.37500000       0.06250000       0.43750000 </v>
   <v>       0.43750000       0.06250000       0.43750000 </v>
   <v>       0.50000000       0.06250000       0.43750000 </v>
   <v>      -0.43750000       0.06250000       0.43750000 </v>
   <v>      -0.37500000       0.06250000       0.43750000 </v>
   <v>      -0.31250000       0.06250000       0.43750000 </v>
   <v>      -0.25000000       0.06250000       0.43750000 </v>
   <v>      -0.18750000       0.06250000       0.43750000 </v>
   <v>      -0.12500000       0.06250000       0.43750000 </v>
   <v>       0.00000000       0.12500000       0.43750000 </v>
   <v>       0.06250000       0.12500000       0.43750000 </v>
   <v>       0.12500000       0.12500000       0.43750000 </v>
   <v>       0.18750000       0.12500000       0.43750000 </v>
   <v>       0.25000000       0.12500000       0.43750000 </v>
   <v>       0.31250000       0.12500000       0.43750000 </v>
   <v>       0.37500000       0.12500000       0.43750000 </v>
   <v>       0.43750000       0.12500000       0.43750000 </v>
   <v>       0.50000000       0.12500000       0.43750000 </v>
   <v>      -0.43750000       0.12500000       0.43750000 </v>
   <v>      -0.37500000       0.12500000       0.43750000 </v>
   <v>      -0.31250000       0.12500000       0.43750000 </v>
   <v>      -0.25000000       0.12500000       0.43750000 </v>
   <v>      -0.18750000       0.12500000       0.43750000 </v>
   <v>       0.00000000       0.18750000       0.43750000 </v>
   <v>       0.06250000       0.18750000       0.43750000 </v>
   <v>       0.12500000       0.18750000       0.43750000 </v>
   <v>       0.18750000       0.18750000       0.43750000 </v>
   <v>       0.25000000       0.18750000       0.43750000 </v>
   <v>       0.31250000       0.18750000       0.43750000 </v>
   <v>       0.37500000       0.18750000       0.43750000 </v>
   <v>       0.43750000       0.18750000       0.43750000 </v>
   <v>       0.50000000       0.18750000       0.43750000 </v>
   <v>      -0.43750000       0.18750000       0.43750000 </v>
   <v>      -0.37500000       0.18750000       0.43750000 </v>
   <v>      -0.31250000       0.18750000       0.43750000 </v>
   <v>      -0.25000000       0.18750000       0.43750000 </v>
   <v>       0.00000000       0.25000000       0.43750000 </v>
   <v>       0.06250000       0.25000000       0.43750000 </v>
   <v>       0.12500000       0.25000000       0.43750000 </v>
   <v>       0.18750000       0.25000000       0.43750000 </v>
   <v>       0.25000000       0.25000000       0.43750000 </v>
   <v>       0.31250000       0.25000000       0.43750000 </v>
   <v>       0.37500000       0.25000000       0.43750000 </v>
   <v>       0.43750000       0.25000000       0.43750000 </v>
   <v>       0.50000000       0.25000000       0.43750000 </v>
   <v>      -0.43750000       0.25000000       0.43750000 </v>
   <v>      -0.37500000       0.25000000       0.43750000 </v>
   <v>      -0.31250000       0.25000000       0.43750000 </v>
   <v>       0.00000000       0.31250000       0.43750000 </v>
   <v>       0.06250000       0.31250000       0.43750000 </v>
   <v>       0.12500000       0.31250000       0.43750000 </v>
   <v>       0.18750000       0.31250000       0.43750000 </v>
   <v>       0.25000000       0.31250000       0.43750000 </v>
   <v>       0.31250000       0.31250000       0.43750000 </v>
   <v>       0.37500000       0.31250000       0.43750000 </v>
   <v>       0.43750000       0.31250000       0.43750000 </v>
   <v>       0.50000000       0.31250000       0.43750000 </v>
   <v>      -0.43750000       0.31250000       0.43750000 </v>
   <v>      -0.37500000       0.31250000       0.43750000 </v>
   <v>       0.00000000       0.37500000       0.43750000 </v>
   <v>       0.06250000       0.37500000       0.43750000 </v>
   <v>       0.12500000       0.37500000       0.43750000 </v>
   <v>       0.18750000       0.37500000       0.43750000 </v>
   <v>       0.25000000       0.37500000       0.43750000 </v>
   <v>       0.31250000       0.37500000       0.43750000 </v>
   <v>       0.37500000       0.37500000       0.43750000 </v>
   <v>       0.43750000       0.37500000       0.43750000 </v>
   <v>       0.50000000       0.37500000       0.43750000 </v>
   <v>      -0.43750000       0.37500000       0.43750000 </v>
   <v>       0.00000000       0.43750000       0.43750000 </v>
   <v>       0.06250000       0.43750000       0.43750000 </v>
   <v>       0.12500000       0.43750000       0.43750000 </v>
   <v>       0.18750000       0.43750000       0.43750000 </v>
   <v>       0.25000000       0.43750000       0.43750000 </v>
   <v>       0.31250000       0.43750000       0.43750000 </v>
   <v>       0.37500000       0.43750000       0.43750000 </v>
   <v>       0.43750000       0.43750000       0.43750000 </v>
   <v>       0.50000000       0.43750000       0.43750000 </v>
   <v>       0.00000000       0.50000000       0.43750000 </v>
   <v>       0.06250000       0.50000000       0.43750000 </v>
   <v>       0.12500000       0.50000000       0.43750000 </v>
   <v>       0.18750000       0.50000000       0.43750000 </v>
   <v>       0.25000000       0.50000000       0.43750000 </v>
   <v>       0.31250000       0.50000000       0.43750000 </v>
   <v>       0.37500000       0.50000000       0.43750000 </v>
   <v>       0.43750000       0.50000000       0.43750000 </v>
   <v>       0.00000000      -0.43750000       0.43750000 </v>
   <v>       0.06250000      -0.43750000       0.43750000 </v>
   <v>       0.12500000      -0.43750000       0.43750000 </v>
   <v>       0.18750000      -0.43750000       0.43750000 </v>
   <v>       0.25000000      -0.43750000       0.43750000 </v>
   <v>       0.31250000      -0.43750000       0.43750000 </v>
   <v>       0.37500000      -0.43750000       0.43750000 </v>
   <v>       0.00000000      -0.37500000       0.43750000 </v>
   <v>       0.06250000      -0.37500000       0.43750000 </v>
   <v>       0.12500000      -0.37500000       0.43750000 </v>
   <v>       0.18750000      -0.37500000       0.43750000 </v>
   <v>       0.25000000      -0.37500000       0.43750000 </v>
   <v>       0.31250000      -0.37500000       0.43750000 </v>
   <v>       0.00000000      -0.31250000       0.43750000 </v>
   <v>       0.06250000      -0.31250000       0.43750000 </v>
   <v>       0.12500000      -0.31250000       0.43750000 </v>
   <v>       0.18750000      -0.31250000       0.43750000 </v>
   <v>       0.25000000      -0.31250000       0.43750000 </v>
   <v>       0.00000000      -0.25000000       0.43750000 </v>
   <v>       0.06250000      -0.25000000       0.43750000 </v>
   <v>       0.12500000      -0.25000000       0.43750000 </v>
   <v>       0.18750000      -0.25000000       0.43750000 </v>
   <v>       0.00000000      -0.18750000       0.43750000 </v>
   <v>       0.06250000      -0.18750000       0.43750000 </v>
   <v>       0.12500000      -0.18750000       0.43750000 </v>
   <v>       0.00000000      -0.12500000       0.43750000 </v>
   <v>       0.06250000      -0.12500000       0.43750000 </v>
   <v>       0.00000000      -0.06250000       0.43750000 </v>
   <v>       0.00000000       0.00000000       0.50000000 </v>
   <v>       0.06250000      -0.00000000       0.50000000 </v>
   <v>       0.12500000      -0.00000000       0.50000000 </v>
   <v>       0.18750000      -0.00000000       0.50000000 </v>
   <v>       0.25000000      -0.00000000       0.50000000 </v>
   <v>       0.31250000      -0.00000000       0.50000000 </v>
   <v>       0.37500000      -0.00000000       0.50000000 </v>
   <v>       0.43750000      -0.00000000       0.50000000 </v>
   <v>       0.50000000      -0.00000000       0.50000000 </v>
   <v>       0.00000000       0.06250000       0.50000000 </v>
   <v>       0.06250000       0.06250000       0.50000000 </v>
   <v>       0.12500000       0.06250000       0.50000000 </v>
   <v>       0.18750000       0.06250000       0.50000000 </v>
   <v>       0.25000000       0.06250000       0.50000000 </v>
   <v>       0.31250000       0.06250000       0.50000000 </v>
   <v>       0.37500000       0.06250000       0.50000000 </v>
   <v>       0.43750000       0.06250000       0.50000000 </v>
   <v>       0.50000000       0.06250000       0.50000000 </v>
   <v>      -0.43750000       0.06250000       0.50000000 </v>
   <v>      -0.37500000       0.06250000       0.50000000 </v>
   <v>      -0.31250000       0.06250000       0.50000000 </v>
   <v>      -0.25000000       0.06250000       0.50000000 </v>
   <v>      -0.18750000       0.06250000       0.50000000 </v>
   <v>      -0.12500000       0.06250000       0.50000000 </v>
   <v>       0.00000000       0.12500000       0.50000000 </v>
   <v>       0.06250000       0.12500000       0.50000000 </v>
   <v>       0.12500000       0.12500000       0.50000000 </v>
   <v>       0.18750000       0.12500000       0.50000000 </v>
   <v>       0.25000000       0.12500000       0.50000000 </v>
   <v>       0.31250000       0.12500000       0.50000000 </v>
   <v>       0.37500000       0.12500000       0.50000000 </v>
   <v>       0.43750000       0.12500000       0.50000000 </v>
   <v>       0.50000000       0.12500000       0.50000000 </v>
   <v>      -0.43750000       0.12500000       0.50000000 </v>
   <v>      -0.37500000       0.12500000       0.50000000 </v>
   <v>      -0.31250000       0.12500000       0.50000000 </v>
   <v>      -0.25000000       0.12500000       0.50000000 </v>
   <v>       0.00000000       0.18750000       0.50000000 </v>
   <v>       0.06250000       0.18750000       0.50000000 </v>
   <v>       0.12500000       0.18750000       0.50000000 </v>
   <v>       0.18750000       0.18750000       0.50000000 </v>
   <v>       0.25000000       0.18750000       0.50000000 </v>
   <v>       0.31250000       0.18750000       0.50000000 </v>
   <v>       0.37500000       0.18750000       0.50000000 </v>
   <v>       0.43750000       0.18750000       0.50000000 </v>
   <v>       0.50000000       0.18750000       0.50000000 </v>
   <v>      -0.43750000       0.18750000       0.50000000 </v>
   <v>      -0.37500000       0.18750000       0.50000000 </v>
   <v>       0.00000000       0.25000000       0.50000000 </v>
   <v>       0.06250000       0.25000000       0.50000000 </v>
   <v>       0.12500000       0.25000000       0.50000000 </v>
   <v>       0.18750000       0.25000000       0.50000000 </v>
   <v>       0.25000000       0.25000000       0.50000000 </v>
   <v>       0.31250000       0.25000000       0.50000000 </v>
   <v>       0.37500000       0.25000000       0.50000000 </v>
   <v>       0.43750000       0.25000000       0.50000000 </v>
   <v>       0.50000000       0.25000000       0.50000000 </v>
   <v>       0.00000000       0.31250000       0.50000000 </v>
   <v>       0.06250000       0.31250000       0.50000000 </v>
   <v>       0.12500000       0.31250000       0.50000000 </v>
   <v>       0.18750000       0.31250000       0.50000000 </v>
   <v>       0.25000000       0.31250000       0.50000000 </v>
   <v>       0.31250000       0.31250000       0.50000000 </v>
   <v>       0.37500000       0.31250000       0.50000000 </v>
   <v>       0.00000000       0.37500000       0.50000000 </v>
   <v>       0.06250000       0.37500000       0.50000000 </v>
   <v>       0.12500000       0.37500000       0.50000000 </v>
   <v>       0.18750000       0.37500000       0.50000000 </v>
   <v>       0.25000000       0.37500000       0.50000000 </v>
   <v>       0.00000000       0.43750000       0.50000000 </v>
   <v>       0.06250000       0.43750000       0.50000000 </v>
   <v>       0.12500000       0.43750000       0.50000000 </v>
   <v>       0.00000000       0.50000000       0.50000000 </v>
  </varray>
  <varray name="weights" >
   <v>       0.00024414 </v>
   <v>       0.00097656 </v>
   <v>       0.00097656 </v>
   <v>       0.00097656 </v>
   <v>       0.00097656 </v>
   <v>       0.00097656 </v>
   <v>       0.00097656 </v>
   <v>       0.00097656 </v>
   <v>       0.00048828 </v>
   <v>       0.00048828 </v>
   <v>       0.00097656 </v>
   <v>       0.00097656 </v>
   <v>       0.00097656 </v>
   <v>       0.00097656 </v>
   <v>       0.00097656 </v>
   <v>       0.00097656 </v>
   <v>       0.00097656 </v>
   <v>       0.00097656 </v>
   <v>       0.00097656 </v>
   <v>       0.00097656 </v>
   <v>       0.00097656 </v>
   <v>       0.00097656 </v>
   <v>       0.00097656 </v>
   <v>       0.00048828 </v>
   <v>       0.00048828 </v>
   <v>       0.00097656 </v>
   <v>       0.00097656 </v>
   <v>       0.00097656 </v>
   <v>       0.00097656 </v>
   <v>       0.00097656 </v>
   <v>       0.00097656 </v>
   <v>       0.00097656 </v>
   <v>       0.00097656 </v>
   <v>       0.00097656 </v>
   <v>       0.00097656 </v>
   <v>       0.00097656 </v>
   <v>       0.00048828 </v>
   <v>       0.00048828 </v>
   <v>       0.00097656 </v>
   <v>       0.00097656 </v>
   <v>       0.00097656 </v>
   <v>       0.00097656 </v>
   <v>       0.00097656 </v>
   <v>       0.00097656 </v>
   <v>       0.00097656 </v>
   <v>       0.00097656 </v>
   <v>       0.00097656 </v>
   <v>       0.00048828 </v>
   <v>       0.00048828 </v>
   <v>       0.00097656 </v>
   <v>       0.00097656 </v>
   <v>       0.00097656 </v>
   <v>       0.00097656 </v>
   <v>       0.00097656 </v>
   <v>       0.00097656 </v>
   <v>       0.00097656 </v>
   <v>       0.00048828 </v>
   <v>       0.00048828 </v>
   <v>       0.00097656 </v>
   <v>       0.00097656 </v>
   <v>       0.00097656 </v>
   <v>       0.00097656 </v>
   <v>       0.00097656 </v>
   <v>       0.00048828 </v>
   <v>       0.00048828 </v>
   <v>       0.00097656 </v>
   <v>       0.00097656 </v>
   <v>       0.00097656 </v>
   <v>       0.00048828 </v>
   <v>       0.00048828 </v>
   <v>       0.00097656 </v>
   <v>       0.00048828 </v>
   <v>       0.00024414 </v>
   <v>       0.00048828 </v>
   <v>       0.00097656 </v>
   <v>       0.00097656 </v>
   <v>       0.00097656 </v>
   <v>       0.00097656 </v>
   <v>       0.00097656 </v>
   <v>       0.00097656 </v>
   <v>       0.00097656 </v>
   <v>       0.00097656 </v>
   <v>       0.00097656 </v>
   <v>       0.00097656 </v>
   <v>       0.00097656 </v>
   <v>       0.00097656 </v>
   <v>       0.00097656 </v>
   <v>       0.00097656 </v>
   <v>       0.00097656 </v>
   <v>       0.00048828 </v>
   <v>       0.00097656 </v>
   <v>       0.00097656 </v>
   <v>       0.00097656 </v>
   <v>       0.00097656 </v>
   <v>       0.00097656 </v>
   <v>       0.00097656 </v>
   <v>       0.00097656 </v>
   <v>       0.00097656 </v>
   <v>       0.00097656 </v>
   <v>       0.00097656 </v>
   <v>       0.00097656 </v>
   <v>       0.00097656 </v>
   <v>       0.00097656 </v>
   <v>       0.00097656 </v>
   <v>       0.00048828 </v>
   <v>       0.00097656 </v>
   <v>       0.00097656 </v>
   <v>       0.00097656 </v>
   <v>       0.00097656 </v>
   <v>       0.00097656 </v>
   <v>       0.00097656 </v>
   <v>       0.00097656 </v>
   <v>       0.00097656 </v>
   <v>       0.00097656 </v>
   <v>       0.00097656 </v>
   <v>       0.00097656 </v>
   <v>       0.00097656 </v>
   <v>       0.00097656 </v>
   <v>       0.00048828 </v>
   <v>       0.00097656 </v>
   <v>       0.00097656 </v>
   <v>       0.00097656 </v>
   <v>       0.00097656 </v>
   <v>       0.00097656 </v>
   <v>       0.00097656 </v>
   <v>       0.00097656 </v>
   <v>       0.00097656 </v>
   <v>       0.00097656 </v>
   <v>       0.00097656 </v>
   <v>       0.00097656 </v>
   <v>       0.00097656 </v>
   <v>       0.00048828 </v>
   <v>       0.00097656 </v>
   <v>       0.00097656 </v>
   <v>       0.00097656 </v>
   <v>       0.00097656 </v>
   <v>       0.00097656 </v>
   <v>       0.00097656 </v>
   <v>       0.00097656 </v>
   <v>       0.00097656 </v>
   <v>       0.00097656 </v>
   <v>       0.00097656 </v>
   <v>       0.00097656 </v>
   <v>       0.00048828 </v>
   <v>       0.00097656 </v>
   <v>       0.00097656 </v>
   <v>       0.00097656 </v>
   <v>       0.00097656 </v>
   <v>       0.00097656 </v>
   <v>       0.00097656 </v>
   <v>       0.00097656 </v>
   <v>       0.00097656 </v>
   <v>       0.00097656 </v>
   <v>       0.00097656 </v>
   <v>       0.00048828 </v>
   <v>       0.00097656 </v>
   <v>       0.00097656 </v>
   <v>       0.00097656 </v>
   <v>       0.00097656 </v>
   <v>       0.00097656 </v>
   <v>       0.00097656 </v>
   <v>       0.00097656 </v>
   <v>       0.00097656 </v>
   <v>       0.00097656 </v>
   <v>       0.00048828 </v>
   <v>       0.00097656 </v>
   <v>       0.00097656 </v>
   <v>       0.00097656 </v>
   <v>       0.00097656 </v>
   <v>       0.00097656 </v>
   <v>       0.00097656 </v>
   <v>       0.00097656 </v>
   <v>       0.00097656 </v>
   <v>       0.00048828 </v>
   <v>       0.00097656 </v>
   <v>       0.00097656 </v>
   <v>       0.00097656 </v>
   <v>       0.00097656 </v>
   <v>       0.00097656 </v>
   <v>       0.00097656 </v>
   <v>       0.00097656 </v>
   <v>       0.00048828 </v>
   <v>       0.00097656 </v>
   <v>       0.00097656 </v>
   <v>       0.00097656 </v>
   <v>       0.00097656 </v>
   <v>       0.00097656 </v>
   <v>       0.00097656 </v>
   <v>       0.00048828 </v>
   <v>       0.00097656 </v>
   <v>       0.00097656 </v>
   <v>       0.00097656 </v>
   <v>       0.00097656 </v>
   <v>       0.00097656 </v>
   <v>       0.00048828 </v>
   <v>       0.00097656 </v>
   <v>       0.00097656 </v>
   <v>       0.00097656 </v>
   <v>       0.00097656 </v>
   <v>       0.00048828 </v>
   <v>       0.00097656 </v>
   <v>       0.00097656 </v>
   <v>       0.00097656 </v>
   <v>       0.00048828 </v>
   <v>       0.00097656 </v>
   <v>       0.00097656 </v>
   <v>       0.00048828 </v>
   <v>       0.00097656 </v>
   <v>       0.00048828 </v>
   <v>       0.00048828 </v>
   <v>       0.00097656 </v>
   <v>       0.00097656 </v>
   <v>       0.00097656 </v>
   <v>       0.00097656 </v>
   <v>       0.00097656 </v>
   <v>       0.00097656 </v>
   <v>       0.00097656 </v>
   <v>       0.00097656 </v>
   <v>       0.00097656 </v>
   <v>       0.00097656 </v>
   <v>       0.00097656 </v>
   <v>       0.00097656 </v>
   <v>       0.00097656 </v>
   <v>       0.00097656 </v>
   <v>       0.00097656 </v>
   <v>       0.00048828 </v>
   <v>       0.00097656 </v>
   <v>       0.00097656 </v>
   <v>       0.00097656 </v>
   <v>       0.00097656 </v>
   <v>       0.00097656 </v>
   <v>       0.00097656 </v>
   <v>       0.00097656 </v>
   <v>       0.00097656 </v>
   <v>       0.00097656 </v>
   <v>       0.00097656 </v>
   <v>       0.00097656 </v>
   <v>       0.00097656 </v>
   <v>       0.00097656 </v>
   <v>       0.00097656 </v>
   <v>       0.00048828 </v>
   <v>       0.00097656 </v>
   <v>       0.00097656 </v>
   <v>       0.00097656 </v>
   <v>       0.00097656 </v>
   <v>       0.00097656 </v>
   <v>       0.00097656 </v>
   <v>       0.00097656 </v>
   <v>       0.00097656 </v>
   <v>       0.00097656 </v>
   <v>       0.00097656 </v>
   <v>       0.00097656 </v>
   <v>       0.00097656 </v>
   <v>       0.00097656 </v>
   <v>       0.00048828 </v>
   <v>       0.00097656 </v>
   <v>       0.00097656 </v>
   <v>       0.00097656 </v>
   <v>       0.00097656 </v>
   <v>       0.00097656 </v>
   <v>       0.00097656 </v>
   <v>       0.00097656 </v>
   <v>       0.00097656 </v>
   <v>       0.00097656 </v>
   <v>       0.00097656 </v>
   <v>       0.00097656 </v>
   <v>       0.00097656 </v>
   <v>       0.00048828 </v>
   <v>       0.00097656 </v>
   <v>       0.00097656 </v>
   <v>       0.00097656 </v>
   <v>       0.00097656 </v>
   <v>       0.00097656 </v>
   <v>       0.00097656 </v>
   <v>       0.00097656 </v>
   <v>       0.00097656 </v>
   <v>       0.00097656 </v>
   <v>       0.00097656 </v>
[...]
       <r>    7.6095    0.0000 </r>
       <r>    8.3425    0.0000 </r>
       <r>    9.0737    0.0000 </r>
       <r>    9.5643    0.0000 </r>
       <r>   11.8034    0.0000 </r>
       <r>   12.9916    0.0000 </r>
       <r>   15.3297    0.0000 </r>
      </set>
      <set comment="kpoint 1060">
       <r>   -4.5601    1.0000 </r>
       <r>    0.3793    1.0000 </r>
       <r>    0.8586    1.0000 </r>
       <r>    1.8049    1.0000 </r>
       <r>    4.0767    1.0000 </r>
       <r>    7.4155    0.0000 </r>
       <r>    7.9485    0.0000 </r>
       <r>    8.7830    0.0000 </r>
       <r>    9.4001    0.0000 </r>
       <r>   12.4182    0.0000 </r>
       <r>   13.4528    0.0000 </r>
       <r>   16.1749    0.0000 </r>
      </set>
      <set comment="kpoint 1061">
       <r>   -4.9570    1.0000 </r>
       <r>    0.1983    1.0000 </r>
       <r>    1.3544    1.0000 </r>
       <r>    2.2656    1.0000 </r>
       <r>    4.5359    1.0000 </r>
       <r>    7.1753    0.0000 </r>
       <r>    7.5626    0.0000 </r>
       <r>    8.4715    0.0000 </r>
       <r>    9.0632    0.0000 </r>
       <r>   12.9440    0.0000 </r>
       <r>   13.9354    0.0000 </r>
       <r>   15.8079    0.0000 </r>
      </set>
      <set comment="kpoint 1062">
       <r>   -5.2698    1.0000 </r>
       <r>   -0.3715    1.0000 </r>
       <r>    2.2971    1.0000 </r>
       <r>    2.8625    1.0000 </r>
       <r>    5.0130    1.0000 </r>
       <r>    6.9165    0.0000 </r>
       <r>    7.2446    0.0000 </r>
       <r>    8.1305    0.0000 </r>
       <r>    8.5701    0.0000 </r>
       <r>   13.2646    0.0000 </r>
       <r>   14.2690    0.0000 </r>
       <r>   15.4970    0.0000 </r>
      </set>
      <set comment="kpoint 1063">
       <r>   -5.4095    1.0000 </r>
       <r>   -0.6230    1.0000 </r>
       <r>    2.6100    1.0000 </r>
       <r>    3.4330    1.0000 </r>
       <r>    5.2364    1.0000 </r>
       <r>    6.8694    0.0000 </r>
       <r>    7.0571    0.0000 </r>
       <r>    7.8150    0.0000 </r>
       <r>    8.3328    0.0000 </r>
       <r>   13.2830    0.0000 </r>
       <r>   14.0502    0.0000 </r>
       <r>   16.9651    0.0000 </r>
      </set>
      <set comment="kpoint 1064">
       <r>   -5.2317    1.0000 </r>
       <r>   -0.2796    1.0000 </r>
       <r>    2.0061    1.0000 </r>
       <r>    2.9408    1.0000 </r>
       <r>    4.9100    1.0000 </r>
       <r>    7.0428    0.0000 </r>
       <r>    7.2344    0.0000 </r>
       <r>    8.1131    0.0000 </r>
       <r>    8.7034    0.0000 </r>
       <r>   13.1648    0.0000 </r>
       <r>   13.8759    0.0000 </r>
       <r>   16.2434    0.0000 </r>
      </set>
      <set comment="kpoint 1065">
       <r>   -4.9641    1.0000 </r>
       <r>    0.2078    1.0000 </r>
       <r>    1.3455    1.0000 </r>
       <r>    2.2763    1.0000 </r>
       <r>    4.5146    1.0000 </r>
       <r>    7.1965    0.0000 </r>
       <r>    7.5635    0.0000 </r>
       <r>    8.4378    0.0000 </r>
       <r>    9.0994    0.0000 </r>
       <r>   12.9678    0.0000 </r>
       <r>   13.9523    0.0000 </r>
       <r>   15.7988    0.0000 </r>
      </set>
      <set comment="kpoint 1066">
       <r>   -4.6081    1.0000 </r>
       <r>    0.6029    1.0000 </r>
       <r>    0.7977    1.0000 </r>
       <r>    1.6709    1.0000 </r>
       <r>    4.1085    1.0000 </r>
       <r>    7.3725    0.0000 </r>
       <r>    7.9583    0.0000 </r>
       <r>    8.7152    0.0000 </r>
       <r>    9.4144    0.0000 </r>
       <r>   12.5808    0.0000 </r>
       <r>   14.1875    0.0000 </r>
       <r>   15.6453    0.0000 </r>
      </set>
      <set comment="kpoint 1067">
       <r>   -4.1705    1.0000 </r>
       <r>   -0.2098    1.0000 </r>
       <r>    1.1507    1.0000 </r>
       <r>    1.5251    1.0000 </r>
       <r>    3.7302    1.0000 </r>
       <r>    7.5528    0.0000 </r>
       <r>    8.3707    0.0000 </r>
       <r>    8.9535    0.0000 </r>
       <r>    9.5806    0.0000 </r>
       <r>   12.0152    0.0000 </r>
       <r>   14.1054    0.0000 </r>
       <r>   14.8807    0.0000 </r>
      </set>
      <set comment="kpoint 1068">
       <r>   -3.6766    1.0000 </r>
       <r>   -0.9987    1.0000 </r>
       <r>    0.9042    1.0000 </r>
       <r>    2.1253    1.0000 </r>
       <r>    3.3871    1.0000 </r>
       <r>    7.7028    0.0000 </r>
       <r>    8.7492    0.0000 </r>
       <r>    9.1563    0.0000 </r>
       <r>    9.6142    0.0000 </r>
       <r>   11.4039    0.0000 </r>
       <r>   13.7768    0.0000 </r>
       <r>   14.3141    0.0000 </r>
      </set>
      <set comment="kpoint 1069">
       <r>   -3.2375    1.0000 </r>
       <r>   -1.5969    1.0000 </r>
       <r>    0.7724    1.0000 </r>
       <r>    2.6553    1.0000 </r>
       <r>    3.0492    1.0000 </r>
       <r>    7.7900    0.0000 </r>
       <r>    9.0015    0.0000 </r>
       <r>    9.3080    0.0000 </r>
       <r>    9.5673    0.0000 </r>
       <r>   10.9790    0.0000 </r>
       <r>   13.5193    0.0000 </r>
       <r>   14.0818    0.0000 </r>
      </set>
      <set comment="kpoint 1070">
       <r>   -3.2342    1.0000 </r>
       <r>   -1.5992    1.0000 </r>
       <r>    0.7763    1.0000 </r>
       <r>    2.6149    1.0000 </r>
       <r>    3.0870    1.0000 </r>
       <r>    7.7942    0.0000 </r>
       <r>    8.9714    0.0000 </r>
       <r>    9.3812    0.0000 </r>
       <r>    9.5163    0.0000 </r>
       <r>   10.9753    0.0000 </r>
       <r>   13.5221    0.0000 </r>
       <r>   14.0754    0.0000 </r>
      </set>
      <set comment="kpoint 1071">
       <r>   -3.6703    1.0000 </r>
       <r>   -1.0020    1.0000 </r>
       <r>    0.9179    1.0000 </r>
       <r>    2.0814    1.0000 </r>
       <r>    3.4207    1.0000 </r>
       <r>    7.7122    0.0000 </r>
       <r>    8.7058    0.0000 </r>
       <r>    9.2322    0.0000 </r>
       <r>    9.5631    0.0000 </r>
       <r>   11.3883    0.0000 </r>
       <r>   13.8082    0.0000 </r>
       <r>   14.2731    0.0000 </r>
      </set>
      <set comment="kpoint 1072">
       <r>   -4.1631    1.0000 </r>
       <r>   -0.2114    1.0000 </r>
       <r>    1.2045    1.0000 </r>
       <r>    1.4483    1.0000 </r>
       <r>    3.7576    1.0000 </r>
       <r>    7.5595    0.0000 </r>
       <r>    8.3396    0.0000 </r>
       <r>    9.0051    0.0000 </r>
       <r>    9.5402    0.0000 </r>
       <r>   11.9824    0.0000 </r>
       <r>   14.1807    0.0000 </r>
       <r>   14.7752    0.0000 </r>
      </set>
      <set comment="kpoint 1073">
       <r>   -4.6005    1.0000 </r>
       <r>    0.6054    1.0000 </r>
       <r>    0.7954    1.0000 </r>
       <r>    1.6538    1.0000 </r>
       <r>    4.1315    1.0000 </r>
       <r>    7.3678    0.0000 </r>
       <r>    7.9430    0.0000 </r>
       <r>    8.7525    0.0000 </r>
       <r>    9.3791    0.0000 </r>
       <r>   12.5377    0.0000 </r>
       <r>   14.2318    0.0000 </r>
       <r>   15.6783    0.0000 </r>
      </set>
      <set comment="kpoint 1074">
       <r>   -5.1001    1.0000 </r>
       <r>   -0.0348    1.0000 </r>
       <r>    1.4911    1.0000 </r>
       <r>    2.8286    1.0000 </r>
       <r>    4.6911    1.0000 </r>
       <r>    7.2422    0.0000 </r>
       <r>    7.2774    0.0000 </r>
       <r>    8.2476    0.0000 </r>
       <r>    8.9260    0.0000 </r>
       <r>   12.8995    0.0000 </r>
       <r>   13.4851    0.0000 </r>
       <r>   17.6034    0.0000 </r>
      </set>
      <set comment="kpoint 1075">
       <r>   -4.8790    1.0000 </r>
       <r>    0.3542    1.0000 </r>
       <r>    0.9362    1.0000 </r>
       <r>    2.4142    1.0000 </r>
       <r>    4.3883    1.0000 </r>
       <r>    7.3066    0.0000 </r>
       <r>    7.5891    0.0000 </r>
       <r>    8.4969    0.0000 </r>
       <r>    9.1980    0.0000 </r>
       <r>   12.6850    0.0000 </r>
       <r>   13.2989    0.0000 </r>
       <r>   17.4552    0.0000 </r>
      </set>
      <set comment="kpoint 1076">
       <r>   -4.5688    1.0000 </r>
       <r>    0.3645    1.0000 </r>
       <r>    0.8718    1.0000 </r>
       <r>    1.8233    1.0000 </r>
       <r>    4.0537    1.0000 </r>
       <r>    7.4109    0.0000 </r>
       <r>    7.9652    0.0000 </r>
       <r>    8.7505    0.0000 </r>
       <r>    9.4482    0.0000 </r>
       <r>   12.4385    0.0000 </r>
       <r>   13.5076    0.0000 </r>
       <r>   16.0033    0.0000 </r>
      </set>
      <set comment="kpoint 1077">
       <r>   -4.1720    1.0000 </r>
       <r>   -0.2166    1.0000 </r>
       <r>    1.1614    1.0000 </r>
       <r>    1.5195    1.0000 </r>
       <r>    3.7317    1.0000 </r>
       <r>    7.5474    0.0000 </r>
       <r>    8.3689    0.0000 </r>
       <r>    8.9611    0.0000 </r>
       <r>    9.5883    0.0000 </r>
       <r>   12.0172    0.0000 </r>
       <r>   14.2287    0.0000 </r>
       <r>   14.7819    0.0000 </r>
      </set>
      <set comment="kpoint 1078">
       <r>   -3.6980    1.0000 </r>
       <r>   -0.8510    1.0000 </r>
       <r>    0.7299    1.0000 </r>
       <r>    2.0884    1.0000 </r>
       <r>    3.4490    1.0000 </r>
       <r>    7.6851    0.0000 </r>
       <r>    8.7728    0.0000 </r>
       <r>    9.1374    0.0000 </r>
       <r>    9.6137    0.0000 </r>
       <r>   11.4696    0.0000 </r>
       <r>   13.7406    0.0000 </r>
       <r>   15.1980    0.0000 </r>
      </set>
      <set comment="kpoint 1079">
       <r>   -3.1838    1.0000 </r>
       <r>   -1.4899    1.0000 </r>
       <r>    0.4633    1.0000 </r>
       <r>    2.6061    1.0000 </r>
       <r>    3.2024    1.0000 </r>
       <r>    7.7886    0.0000 </r>
       <r>    9.1303    0.0000 </r>
       <r>    9.2749    0.0000 </r>
       <r>    9.5893    0.0000 </r>
       <r>   10.9046    0.0000 </r>
       <r>   13.1417    0.0000 </r>
       <r>   15.3754    0.0000 </r>
      </set>
      <set comment="kpoint 1080">
       <r>   -2.8572    1.0000 </r>
       <r>   -1.8636    1.0000 </r>
       <r>    0.3791    1.0000 </r>
       <r>    2.9280    1.0000 </r>
       <r>    2.9899    1.0000 </r>
       <r>    7.8308    0.0000 </r>
       <r>    9.2570    0.0000 </r>
       <r>    9.3631    0.0000 </r>
       <r>    9.5949    0.0000 </r>
       <r>   10.6128    0.0000 </r>
       <r>   12.9405    0.0000 </r>
       <r>   15.3364    0.0000 </r>
      </set>
      <set comment="kpoint 1081">
       <r>   -3.1772    1.0000 </r>
       <r>   -1.4933    1.0000 </r>
       <r>    0.4691    1.0000 </r>
       <r>    2.5625    1.0000 </r>
       <r>    3.2413    1.0000 </r>
       <r>    7.7995    0.0000 </r>
       <r>    9.0513    0.0000 </r>
       <r>    9.4164    0.0000 </r>
       <r>    9.5085    0.0000 </r>
       <r>   10.8929    0.0000 </r>
       <r>   13.1385    0.0000 </r>
       <r>   15.3687    0.0000 </r>
      </set>
      <set comment="kpoint 1082">
       <r>   -3.6896    1.0000 </r>
       <r>   -0.8518    1.0000 </r>
       <r>    0.7417    1.0000 </r>
       <r>    2.0457    1.0000 </r>
       <r>    3.4806    1.0000 </r>
       <r>    7.7005    0.0000 </r>
       <r>    8.7219    0.0000 </r>
       <r>    9.2122    0.0000 </r>
       <r>    9.5596    0.0000 </r>
       <r>   11.4436    0.0000 </r>
       <r>   13.7421    0.0000 </r>
       <r>   15.1795    0.0000 </r>
      </set>
      <set comment="kpoint 1083">
       <r>   -4.7070    1.0000 </r>
       <r>    0.4099    1.0000 </r>
       <r>    0.6644    1.0000 </r>
       <r>    2.3473    1.0000 </r>
       <r>    4.1710    1.0000 </r>
       <r>    7.4239    0.0000 </r>
       <r>    7.7291    0.0000 </r>
       <r>    8.6544    0.0000 </r>
       <r>    9.3539    0.0000 </r>
       <r>   12.3106    0.0000 </r>
       <r>   12.8604    0.0000 </r>
       <r>   18.5284    0.0000 </r>
      </set>
      <set comment="kpoint 1084">
       <r>   -4.4482    1.0000 </r>
       <r>   -0.0776    1.0000 </r>
       <r>    1.0614    1.0000 </r>
       <r>    2.0107    1.0000 </r>
       <r>    3.9060    1.0000 </r>
       <r>    7.4989    0.0000 </r>
       <r>    8.0142    0.0000 </r>
       <r>    8.8652    0.0000 </r>
       <r>    9.5246    0.0000 </r>
       <r>   12.0989    0.0000 </r>
       <r>   12.6680    0.0000 </r>
       <r>   16.6570    0.0000 </r>
      </set>
      <set comment="kpoint 1085">
       <r>   -4.1040    1.0000 </r>
       <r>   -0.5487    1.0000 </r>
       <r>    1.4275    1.0000 </r>
       <r>    1.6234    1.0000 </r>
       <r>    3.6365    1.0000 </r>
       <r>    7.5864    0.0000 </r>
       <r>    8.3627    0.0000 </r>
       <r>    9.0479    0.0000 </r>
       <r>    9.6232    0.0000 </r>
       <r>   11.8300    0.0000 </r>
       <r>   13.0621    0.0000 </r>
       <r>   15.2703    0.0000 </r>
      </set>
      <set comment="kpoint 1086">
       <r>   -3.6793    1.0000 </r>
       <r>   -1.0090    1.0000 </r>
       <r>    0.9144    1.0000 </r>
       <r>    2.1154    1.0000 </r>
       <r>    3.3977    1.0000 </r>
       <r>    7.6887    0.0000 </r>
       <r>    8.7360    0.0000 </r>
       <r>    9.1912    0.0000 </r>
       <r>    9.6204    0.0000 </r>
       <r>   11.4228    0.0000 </r>
       <r>   14.0090    0.0000 </r>
       <r>   14.0805    0.0000 </r>
      </set>
      <set comment="kpoint 1087">
       <r>   -3.1851    1.0000 </r>
       <r>   -1.4944    1.0000 </r>
       <r>    0.4660    1.0000 </r>
       <r>    2.5988    1.0000 </r>
       <r>    3.2118    1.0000 </r>
       <r>    7.7808    0.0000 </r>
       <r>    9.0985    0.0000 </r>
       <r>    9.3310    0.0000 </r>
       <r>    9.5791    0.0000 </r>
       <r>   10.9183    0.0000 </r>
       <r>   13.1397    0.0000 </r>
       <r>   16.5903    0.0000 </r>
      </set>
      <set comment="kpoint 1088">
       <r>   -2.6552    1.0000 </r>
       <r>   -2.0137    1.0000 </r>
       <r>    0.2241    1.0000 </r>
       <r>    2.9277    1.0000 </r>
       <r>    3.0780    1.0000 </r>
       <r>    7.8370    0.0000 </r>
       <r>    9.3110    0.0000 </r>
       <r>    9.3949    0.0000 </r>
       <r>    9.7626    0.0000 </r>
       <r>   10.3648    0.0000 </r>
       <r>   12.6807    0.0000 </r>
       <r>   16.9152    0.0000 </r>
      </set>
      <set comment="kpoint 1089">
       <r>   -2.6494    1.0000 </r>
       <r>   -2.0168    1.0000 </r>
       <r>    0.2255    1.0000 </r>
       <r>    2.8892    1.0000 </r>
       <r>    3.1141    1.0000 </r>
       <r>    7.8442    0.0000 </r>
       <r>    9.2795    0.0000 </r>
       <r>    9.4197    0.0000 </r>
       <r>    9.7601    0.0000 </r>
       <r>   10.3535    0.0000 </r>
       <r>   12.6818    0.0000 </r>
       <r>   16.8483    0.0000 </r>
      </set>
      <set comment="kpoint 1090">
       <r>   -4.2475    1.0000 </r>
       <r>   -0.5351    1.0000 </r>
       <r>    1.3599    1.0000 </r>
       <r>    1.9983    1.0000 </r>
       <r>    3.6979    1.0000 </r>
       <r>    7.5757    0.0000 </r>
       <r>    8.1583    0.0000 </r>
       <r>    9.0443    0.0000 </r>
       <r>    9.6316    0.0000 </r>
       <r>   11.7373    0.0000 </r>
       <r>   12.1840    0.0000 </r>
       <r>   17.0720    0.0000 </r>
      </set>
      <set comment="kpoint 1091">
       <r>   -3.9710    1.0000 </r>
       <r>   -0.9506    1.0000 </r>
       <r>    1.6956    1.0000 </r>
       <r>    1.7871    1.0000 </r>
       <r>    3.4685    1.0000 </r>
       <r>    7.6361    0.0000 </r>
       <r>    8.3898    0.0000 </r>
       <r>    9.2092    0.0000 </r>
       <r>    9.6942    0.0000 </r>
       <r>   11.5753    0.0000 </r>
       <r>   12.0958    0.0000 </r>
       <r>   19.0714    0.0000 </r>
      </set>
      <set comment="kpoint 1092">
       <r>   -3.6282    1.0000 </r>
       <r>   -1.3072    1.0000 </r>
       <r>    1.2790    1.0000 </r>
       <r>    2.1981    1.0000 </r>
       <r>    3.2539    1.0000 </r>
       <r>    7.7015    0.0000 </r>
       <r>    8.6688    0.0000 </r>
       <r>    9.3166    0.0000 </r>
       <r>    9.6417    0.0000 </r>
       <r>   11.3311    0.0000 </r>
       <r>   12.7441    0.0000 </r>
       <r>   14.7986    0.0000 </r>
      </set>
      <set comment="kpoint 1093">
       <r>   -3.2411    1.0000 </r>
       <r>   -1.6087    1.0000 </r>
       <r>    0.7806    1.0000 </r>
       <r>    2.6274    1.0000 </r>
       <r>    3.0816    1.0000 </r>
       <r>    7.7672    0.0000 </r>
       <r>    8.9717    0.0000 </r>
       <r>    9.3961    0.0000 </r>
       <r>    9.5488    0.0000 </r>
       <r>   11.0120    0.0000 </r>
       <r>   13.6851    0.0000 </r>
       <r>   13.9053    0.0000 </r>
      </set>
      <set comment="kpoint 1094">
       <r>   -2.8616    1.0000 </r>
       <r>   -1.8677    1.0000 </r>
       <r>    0.3805    1.0000 </r>
       <r>    2.9396    1.0000 </r>
       <r>    2.9830    1.0000 </r>
       <r>    7.8154    0.0000 </r>
       <r>    9.2200    0.0000 </r>
       <r>    9.4553    0.0000 </r>
       <r>    9.5645    0.0000 </r>
       <r>   10.6374    0.0000 </r>
       <r>   12.9362    0.0000 </r>
       <r>   15.3458    0.0000 </r>
      </set>
      <set comment="kpoint 1095">
       <r>   -3.7846    1.0000 </r>
       <r>   -1.3038    1.0000 </r>
       <r>    1.7868    1.0000 </r>
       <r>    2.0074    1.0000 </r>
       <r>    3.2665    1.0000 </r>
       <r>    7.6737    0.0000 </r>
       <r>    8.4768    0.0000 </r>
       <r>    9.3768    0.0000 </r>
       <r>    9.7853    0.0000 </r>
       <r>   11.3359    0.0000 </r>
       <r>   11.6042    0.0000 </r>
       <r>   18.3376    0.0000 </r>
      </set>
      <set comment="kpoint 1096">
       <r>   -3.5703    1.0000 </r>
       <r>   -1.5536    1.0000 </r>
       <r>    1.5937    1.0000 </r>
       <r>    2.3114    1.0000 </r>
       <r>    3.0780    1.0000 </r>
       <r>    7.7070    0.0000 </r>
       <r>    8.6148    0.0000 </r>
       <r>    9.4721    0.0000 </r>
       <r>    9.7217    0.0000 </r>
       <r>   11.2693    0.0000 </r>
       <r>   11.7383    0.0000 </r>
       <r>   15.7604    0.0000 </r>
      </set>
      <set comment="kpoint 1097">
       <r>   -3.3728    1.0000 </r>
       <r>   -1.6588    1.0000 </r>
       <r>    1.2152    1.0000 </r>
       <r>    2.5717    1.0000 </r>
       <r>    2.9771    1.0000 </r>
       <r>    7.7413    0.0000 </r>
       <r>    8.7875    0.0000 </r>
       <r>    9.5112    0.0000 </r>
       <r>    9.5436    0.0000 </r>
       <r>   11.1360    0.0000 </r>
       <r>   12.6294    0.0000 </r>
       <r>   14.6326    0.0000 </r>
      </set>
      <set comment="kpoint 1098">
       <r>   -3.5438    1.0000 </r>
       <r>   -1.6478    1.0000 </r>
       <r>    1.7161    1.0000 </r>
       <r>    2.3784    1.0000 </r>
       <r>    2.9851    1.0000 </r>
       <r>    7.7068    0.0000 </r>
       <r>    8.5963    0.0000 </r>
       <r>    9.5239    0.0000 </r>
       <r>    9.8345    0.0000 </r>
       <r>   11.2589    0.0000 </r>
       <r>   11.2930    0.0000 </r>
       <r>   16.3654    0.0000 </r>
      </set>
     </set>
    </set>
   </array>
  </eigenvalues>
  <separator name="orbital magnetization" >
   <v name="MAGDIPOLOUT">      0.00000000      0.00000000      0.00000000</v>
  </separator>
 </calculation>
 <structure name="finalpos" >
  <crystal>
   <varray name="basis" >
    <v>       3.03293523       0.00000000       0.00000000 </v>
    <v>      -1.51646762       2.62659896       0.07879797 </v>
    <v>       0.00000000       0.09677069       3.41923088 </v>
   </varray>
   <i name="volume">     27.21550730 </i>
   <varray name="rec_basis" >
    <v>       0.32971360       0.19052200      -0.00539213 </v>
    <v>       0.00000000       0.38104400      -0.01078426 </v>
    <v>       0.00000000      -0.00878136       0.29271196 </v>
   </varray>
  </crystal>
  <varray name="positions" >
   <v>       0.00000000       0.00000000      -0.00000000 </v>
   <v>       0.33343762       0.66687523       0.49995680 </v>
   <v>       0.66656238       0.33312477       0.50004320 </v>
  </varray>
 </structure>
</modeling>
