unknown system                          
           1
     3.032935    0.000000    0.000000
    -1.516468    2.626599    0.078798
     0.000000    0.096771    3.419231
   Ti   B 
   1   2
Direct configuration=     1
   0.00000000  0.00000000  0.00000000
   0.33333333  0.66666667  0.50000000
   0.66666667  0.33333333  0.50000000
Direct configuration=     2
   0.00000000  0.00000000 -0.00000000
   0.33343762  0.66687523  0.49995680
   0.66656238  0.33312477  0.50004320
