    3    3   50    1
  0.8043963E+01  0.3032935E-09  0.3033959E-09  0.3033692E-09  0.5000000E-15
  1.000000000000000E-004
  CAR 
 unknown system                          
     10   1098     12
 
  0.0000000E+00  0.0000000E+00  0.0000000E+00  0.2441406E-03
    1       -6.856202   1.000000
    2        3.710115   1.000000
    3        3.710372   1.000000
    4        4.784550   1.000000
    5        5.411064   1.000000
    6        8.897253   0.000000
    7        8.929813   0.000000
    8       11.198497   0.000000
    9       11.335457   0.000000
   10       12.409875   0.000000
   11       12.466796   0.000000
   12       13.489581   0.000000
 
  0.6250000E-01 -0.5692061E-18  0.0000000E+00  0.9765625E-03
    1       -6.781387   1.000000
    2        3.503444   1.000000
    3        3.708271   1.000000
    4        4.807130   1.000000
    5        5.317344   1.000000
    6        8.882421   0.000000
    7        9.089241   0.000000
    8       10.749172   0.000000
    9       10.863357   0.000000
   10       12.951812   0.000000
   11       13.073418   0.000000
   12       13.725518   0.000000
 
  0.1250000E+00 -0.1138412E-17  0.0000000E+00  0.9765625E-03
    1       -6.559055   1.000000
    2        2.938054   1.000000
    3        3.697138   1.000000
    4        4.856812   1.000000
    5        5.099202   1.000000
    6        8.820465   0.000000
    7        9.497450   0.000000
    8       10.097922   0.000000
    9       10.267139   0.000000
   10       13.694517   0.000000
   11       14.187484   0.000000
   12       14.512794   0.000000
 
  0.1875000E+00 -0.1707618E-17  0.0000000E+00  0.9765625E-03
    1       -6.195437   1.000000
    2        2.137205   1.000000
    3        3.666998   1.000000
    4        4.762877   1.000000
    5        4.971536   1.000000
    6        8.729166   0.000000
    7        9.519414   0.000000
    8        9.752314   0.000000
    9       10.211978   0.000000
   10       14.253169   0.000000
   11       15.315084   0.000000
   12       15.703781   0.000000
 
  0.2500000E+00 -0.2276825E-17  0.0000000E+00  0.9765625E-03
    1       -5.700299   1.000000
    2        1.211426   1.000000
    3        3.614858   1.000000
    4        4.520850   1.000000
    5        4.927520   1.000000
    6        8.625367   0.000000
    7        9.312990   0.000000
    8        9.539684   0.000000
    9       10.702916   0.000000
   10       14.625579   0.000000
   11       14.830664   0.000000
   12       16.980896   0.000000
 
  0.3125000E+00 -0.2846031E-17  0.0000000E+00  0.9765625E-03
    1       -5.086154   1.000000
    2        0.231671   1.000000
    3        3.551623   1.000000
    4        4.304398   1.000000
    5        4.794833   1.000000
    6        8.526437   0.000000
    7        9.394226   0.000000
    8        9.482055   0.000000
    9       11.023045   0.000000
   10       14.486902   0.000000
   11       15.031517   0.000000
   12       16.581403   0.000000
 
  0.3750000E+00 -0.3415237E-17  0.0000000E+00  0.9765625E-03
    1       -4.367576   1.000000
    2       -0.759224   1.000000
    3        3.495354   1.000000
    4        4.136134   1.000000
    5        4.617769   1.000000
    6        8.443289   0.000000
    7        9.494216   0.000000
    8        9.725168   0.000000
    9       11.067042   0.000000
   10       14.589705   0.000000
   11       15.209649   0.000000
   12       16.141640   0.000000
 
  0.4375000E+00 -0.5944138E-16 -0.3469447E-17  0.9765625E-03
    1       -3.561314   1.000000
    2       -1.732076   1.000000
    3        3.459101   1.000000
    4        4.027561   1.000000
    5        4.475858   1.000000
    6        8.387571   0.000000
    7        9.563472   0.000000
    8       10.062580   0.000000
    9       10.969236   0.000000
   10       14.829805   0.000000
   11       15.235336   0.000000
   12       15.820552   0.000000
 
  0.5000000E+00 -0.4553649E-17  0.0000000E+00  0.4882812E-03
    1       -2.769435   1.000000
    2       -2.579911   1.000000
    3        3.447011   1.000000
    4        3.989675   1.000000
    5        4.422782   1.000000
    6        8.368014   0.000000
    7        9.595881   0.000000
    8       10.216134   0.000000
    9       10.909286   0.000000
   10       14.946312   0.000000
   11       15.187492   0.000000
   12       15.735729   0.000000
 
  0.0000000E+00  0.6250000E-01  0.0000000E+00  0.4882812E-03
    1       -6.781157   1.000000
    2        3.502783   1.000000
    3        3.709881   1.000000
    4        4.797779   1.000000
    5        5.324632   1.000000
    6        8.911988   0.000000
    7        9.051375   0.000000
    8       10.760965   0.000000
    9       10.875149   0.000000
   10       12.952656   0.000000
   11       13.053004   0.000000
   12       13.732268   0.000000
 
  0.6250000E-01  0.6250000E-01  0.0000000E+00  0.9765625E-03
    1       -6.632339   1.000000
    2        3.138052   1.000000
    3        3.670535   1.000000
    4        4.837246   1.000000
    5        5.179778   1.000000
    6        8.837302   0.000000
    7        9.360893   0.000000
    8       10.290956   0.000000
    9       10.413107   0.000000
   10       13.611165   0.000000
   11       13.702984   0.000000
   12       14.272760   0.000000
 
  0.1250000E+00  0.6250000E-01  0.0000000E+00  0.9765625E-03
    1       -6.339095   1.000000
    2        2.493231   1.000000
    3        3.561567   1.000000
    4        4.858208   1.000000
    5        5.032532   1.000000
    6        8.704093   0.000000
    7        9.712210   0.000000
    8        9.763067   0.000000
    9       10.152299   0.000000
   10       14.243179   0.000000
   11       14.638269   0.000000
   12       15.434567   0.000000
 
  0.1875000E+00  0.6250000E-01  0.0000000E+00  0.9765625E-03
    1       -5.909350   1.000000
    2        1.661991   1.000000
    3        3.407875   1.000000
    4        4.651889   1.000000
    5        5.102790   1.000000
    6        8.540204   0.000000
    7        9.300078   0.000000
    8        9.698124   0.000000
    9       10.596689   0.000000
   10       14.737799   0.000000
   11       14.914528   0.000000
   12       16.700782   0.000000
 
  0.2500000E+00  0.6250000E-01  0.0000000E+00  0.9765625E-03
    1       -5.354185   1.000000
    2        0.731685   1.000000
    3        3.234574   1.000000
    4        4.428176   1.000000
    5        5.147289   1.000000
    6        8.381139   0.000000
    7        9.118688   0.000000
    8        9.688651   0.000000
    9       11.082949   0.000000
   10       14.517069   0.000000
   11       15.072853   0.000000
   12       16.947258   0.000000
 
  0.3125000E+00  0.6250000E-01 -0.3469447E-17  0.9765625E-03
    1       -4.687110   1.000000
    2       -0.239765   1.000000
    3        3.068812   1.000000
    4        4.247335   1.000000
    5        5.108440   1.000000
    6        8.245296   0.000000
    7        9.168404   0.000000
    8        9.808145   0.000000
    9       11.326245   0.000000
   10       14.455612   0.000000
   11       15.311727   0.000000
   12       16.420083   0.000000
 
  0.3750000E+00  0.6250000E-01  0.0000000E+00  0.9765625E-03
    1       -3.923560   1.000000
    2       -1.214598   1.000000
    3        2.937862   1.000000
    4        4.124520   1.000000
    5        5.031322   1.000000
    6        8.134675   0.000000
    7        9.343579   0.000000
    8        9.991039   0.000000
    9       11.333625   0.000000
   10       14.665517   0.000000
   11       15.406979   0.000000
   12       16.062336   0.000000
 
  0.4375000E+00  0.6250000E-01 -0.3469447E-17  0.9765625E-03
    1       -3.082920   1.000000
    2       -2.162915   1.000000
    3        2.865351   1.000000
    4        4.061279   1.000000
    5        4.978989   1.000000
    6        8.069614   0.000000
    7        9.487711   0.000000
    8       10.130059   0.000000
    9       11.278211   0.000000
   10       14.869413   0.000000
   11       15.359906   0.000000
   12       15.913623   0.000000
 
  0.5000000E+00  0.6250000E-01  0.0000000E+00  0.9765625E-03
    1       -3.085182   1.000000
    2       -2.160592   1.000000
    3        2.865735   1.000000
    4        4.054752   1.000000
    5        4.986133   1.000000
    6        8.069635   0.000000
    7        9.503024   0.000000
    8       10.108234   0.000000
    9       11.284519   0.000000
   10       14.869349   0.000000
   11       15.343639   0.000000
   12       15.927819   0.000000
 
 -0.4375000E+00  0.6250000E-01  0.1734723E-17  0.9765625E-03
    1       -3.925739   1.000000
    2       -1.212211   1.000000
    3        2.940369   1.000000
    4        4.105445   1.000000
    5        5.049847   1.000000
    6        8.139426   0.000000
    7        9.380065   0.000000
    8        9.933436   0.000000
    9       11.351244   0.000000
   10       14.656237   0.000000
   11       15.380565   0.000000
   12       16.090539   0.000000
 
 -0.3750000E+00  0.6250000E-01  0.0000000E+00  0.9765625E-03
    1       -4.689138   1.000000
    2       -0.237579   1.000000
    3        3.076245   1.000000
    4        4.217060   1.000000
    5        5.131864   1.000000
    6        8.268211   0.000000
    7        9.195678   0.000000
    8        9.737663   0.000000
    9       11.350827   0.000000
   10       14.429690   0.000000
   11       15.306921   0.000000
   12       16.437667   0.000000
 
 -0.3125000E+00  0.6250000E-01  0.0000000E+00  0.9765625E-03
    1       -5.355976   1.000000
    2        0.733053   1.000000
    3        3.248597   1.000000
    4        4.390625   1.000000
    5        5.169463   1.000000
    6        8.434435   0.000000
    7        9.109282   0.000000
    8        9.623391   0.000000
    9       11.108109   0.000000
   10       14.458849   0.000000
   11       15.109588   0.000000
   12       17.365023   0.000000
 
 -0.2500000E+00  0.6250000E-01  0.0000000E+00  0.9765625E-03
    1       -5.910830   1.000000
    2        1.661423   1.000000
    3        3.425616   1.000000
    4        4.618966   1.000000
    5        5.117087   1.000000
    6        8.605932   0.000000
    7        9.256726   0.000000
    8        9.652077   0.000000
    9       10.618084   0.000000
   10       14.578970   0.000000
   11       15.017603   0.000000
   12       16.310063   0.000000
 
 -0.1875000E+00  0.6250000E-01  0.0000000E+00  0.9765625E-03
    1       -6.340200   1.000000
    2        2.490128   1.000000
    3        3.575930   1.000000
    4        4.877639   1.000000
    5        5.001264   1.000000
    6        8.748654   0.000000
    7        9.581061   0.000000
    8        9.863400   0.000000
    9       10.127411   0.000000
   10       14.197939   0.000000
   11       14.646818   0.000000
   12       15.391329   0.000000
 
 -0.1250000E+00  0.6250000E-01  0.0000000E+00  0.4882812E-03
    1       -6.633020   1.000000
    2        3.134932   1.000000
    3        3.675723   1.000000
    4        4.868813   1.000000
    5        5.147467   1.000000
    6        8.842311   0.000000
    7        9.376390   0.000000
    8       10.278573   0.000000
    9       10.385580   0.000000
   10       13.563698   0.000000
   11       13.774918   0.000000
   12       14.264675   0.000000
 
  0.0000000E+00  0.1250000E+00  0.0000000E+00  0.4882812E-03
    1       -6.558155   1.000000
    2        2.935532   1.000000
    3        3.704333   1.000000
    4        4.809419   1.000000
    5        5.136976   1.000000
    6        8.862913   0.000000
    7        9.381817   0.000000
    8       10.191222   0.000000
    9       10.281021   0.000000
   10       13.643020   0.000000
   11       14.193868   0.000000
   12       14.497152   0.000000
 
  0.6250000E-01  0.1250000E+00  0.0000000E+00  0.9765625E-03
    1       -6.338435   1.000000
    2        2.490680   1.000000
    3        3.570724   1.000000
    4        4.811537   1.000000
    5        5.067740   1.000000
    6        8.737765   0.000000
    7        9.526816   0.000000
    8        9.906258   0.000000
    9       10.182789   0.000000
   10       14.164318   0.000000
   11       14.797511   0.000000
   12       15.621959   0.000000
 
  0.1250000E+00  0.1250000E+00  0.0000000E+00  0.9765625E-03
    1       -5.978942   1.000000
    2        1.887446   1.000000
    3        3.221520   1.000000
    4        4.685554   1.000000
    5        5.230901   1.000000
    6        8.487794   0.000000
    7        9.274367   0.000000
    8        9.756453   0.000000
    9       10.619962   0.000000
   10       14.803461   0.000000
   11       15.110371   0.000000
   12       15.330978   0.000000
 
  0.1875000E+00  0.1250000E+00 -0.3469447E-17  0.9765625E-03
    1       -5.488760   1.000000
    2        1.139554   1.000000
    3        2.814378   1.000000
    4        4.502092   1.000000
    5        5.503820   1.000000
    6        8.192304   0.000000
    7        8.933531   0.000000
    8        9.800792   0.000000
    9       11.241970   0.000000
   10       14.502989   0.000000
   11       15.478210   0.000000
   12       16.245975   0.000000
 
  0.2500000E+00  0.1250000E+00  0.0000000E+00  0.9765625E-03
    1       -4.879860   1.000000
    2        0.279627   1.000000
    3        2.451751   1.000000
    4        4.354199   1.000000
    5        5.718451   1.000000
    6        7.909081   0.000000
    7        8.778107   0.000000
    8        9.914405   0.000000
    9       11.763671   0.000000
   10       14.280293   0.000000
   11       15.732950   0.000000
   12       17.081943   0.000000
 
  0.3125000E+00  0.1250000E+00  0.0000000E+00  0.9765625E-03
    1       -4.166580   1.000000
    2       -0.642325   1.000000
    3        2.175146   1.000000
    4        4.261051   1.000000
    5        5.808849   1.000000
    6        7.663741   0.000000
    7        8.876173   0.000000
    8       10.006840   0.000000
    9       12.011035   0.000000
   10       14.393975   0.000000
   11       15.834091   0.000000
   12       16.476474   0.000000
 
  0.3750000E+00  0.1250000E+00  0.0000000E+00  0.9765625E-03
    1       -3.365445   1.000000
    2       -1.579890   1.000000
    3        2.002312   1.000000
    4        4.215442   1.000000
    5        5.815327   1.000000
    6        7.485695   0.000000
    7        9.133415   0.000000
    8       10.005137   0.000000
    9       12.045802   0.000000
   10       14.672352   0.000000
   11       15.776650   0.000000
   12       16.388714   0.000000
 
  0.4375000E+00  0.1250000E+00 -0.6938894E-17  0.9765625E-03
    1       -2.531664   1.000000
    2       -2.460766   1.000000
    3        1.942438   1.000000
    4        4.201867   1.000000
    5        5.810986   1.000000
    6        7.419586   0.000000
    7        9.301162   0.000000
    8        9.949207   0.000000
    9       12.038488   0.000000
   10       14.807481   0.000000
   11       15.713830   0.000000
   12       16.391889   0.000000
 
  0.5000000E+00  0.1250000E+00  0.0000000E+00  0.9765625E-03
    1       -3.369882   1.000000
    2       -1.574910   1.000000
    3        1.999227   1.000000
    4        4.212534   1.000000
    5        5.822275   1.000000
    6        7.490716   0.000000
    7        9.155113   0.000000
    8        9.971776   0.000000
    9       12.056746   0.000000
   10       14.663023   0.000000
   11       15.740635   0.000000
   12       16.423508   0.000000
 
 -0.4375000E+00  0.1250000E+00  0.1301043E-17  0.9765625E-03
    1       -4.170729   1.000000
    2       -0.637206   1.000000
    3        2.171484   1.000000
    4        4.254344   1.000000
    5        5.816442   1.000000
    6        7.688836   0.000000
    7        8.886943   0.000000
    8        9.960277   0.000000
    9       12.037342   0.000000
   10       14.361254   0.000000
   11       15.797530   0.000000
   12       18.085177   0.000000
 
 -0.3750000E+00  0.1250000E+00  0.0000000E+00  0.9765625E-03
    1       -4.883626   1.000000
    2        0.284032   1.000000
    3        2.452302   1.000000
    4        4.341811   1.000000
    5        5.723668   1.000000
    6        7.972208   0.000000
    7        8.752808   0.000000
    8        9.862893   0.000000
    9       11.796976   0.000000
   10       14.223822   0.000000
   11       15.733026   0.000000
   12       16.770310   0.000000
 
 -0.3125000E+00  0.1250000E+00  0.0000000E+00  0.9765625E-03
    1       -5.491983   1.000000
    2        1.141548   1.000000
    3        2.823622   1.000000
    4        4.484514   1.000000
    5        5.507934   1.000000
    6        8.280167   0.000000
    7        8.876983   0.000000
    8        9.749871   0.000000
    9       11.266395   0.000000
   10       14.418414   0.000000
   11       15.527227   0.000000
   12       16.478536   0.000000
 
 -0.2500000E+00  0.1250000E+00  0.0000000E+00  0.4882812E-03
    1       -5.981493   1.000000
    2        1.886549   1.000000
    3        3.236353   1.000000
    4        4.677137   1.000000
    5        5.226227   1.000000
    6        8.554805   0.000000
    7        9.225233   0.000000
    8        9.717894   0.000000
    9       10.624765   0.000000
   10       14.679034   0.000000
   11       15.105121   0.000000
   12       15.568912   0.000000
 
  0.0000000E+00  0.1875000E+00  0.0000000E+00  0.4882812E-03
    1       -6.193487   1.000000
    2        2.134574   1.000000
    3        3.682933   1.000000
    4        4.676179   1.000000
    5        5.034916   1.000000
    6        8.792009   0.000000
    7        9.342723   0.000000
    8        9.845852   0.000000
    9       10.277757   0.000000
   10       14.175443   0.000000
   11       15.461772   0.000000
   12       15.631660   0.000000
 
  0.6250000E-01  0.1875000E+00 -0.3469447E-17  0.9765625E-03
    1       -5.907681   1.000000
    2        1.660263   1.000000
    3        3.423759   1.000000
    4        4.597737   1.000000
    5        5.132253   1.000000
    6        8.603270   0.000000
    7        9.221434   0.000000
    8        9.707002   0.000000
    9       10.638931   0.000000
   10       14.539166   0.000000
   11       15.073132   0.000000
   12       15.946364   0.000000
 
  0.1250000E+00  0.1875000E+00  0.0000000E+00  0.9765625E-03
    1       -5.487775   1.000000
    2        1.139680   1.000000
    3        2.818309   1.000000
    4        4.488466   1.000000
    5        5.506322   1.000000
    6        8.228922   0.000000
    7        8.906871   0.000000
    8        9.793887   0.000000
    9       11.256729   0.000000
   10       14.472644   0.000000
   11       15.495320   0.000000
   12       16.597680   0.000000
 
  0.1875000E+00  0.1875000E+00  0.0000000E+00  0.9765625E-03
    1       -4.943624   1.000000
    2        0.557222   1.000000
    3        2.134242   1.000000
    4        4.400635   1.000000
    5        5.976572   1.000000
    6        7.786612   0.000000
    7        8.578337   0.000000
    8        9.950985   0.000000
    9       11.979746   0.000000
   10       14.174767   0.000000
   11       16.390785   0.000000
   12       16.892622   0.000000
 
  0.2500000E+00  0.1875000E+00  0.0000000E+00  0.9765625E-03
    1       -4.288009   1.000000
    2       -0.141289   1.000000
    3        1.564595   1.000000
    4        4.375062   1.000000
    5        6.382247   1.000000
    6        7.345708   0.000000
    7        8.434010   0.000000
    8       10.031043   0.000000
    9       12.590865   0.000000
   10       14.083146   0.000000
   11       16.424678   0.000000
   12       17.341777   0.000000
 
  0.3125000E+00  0.1875000E+00 -0.6938894E-17  0.9765625E-03
    1       -3.536910   1.000000
    2       -0.962421   1.000000
    3        1.197575   1.000000
    4        4.402086   1.000000
    5        6.595092   1.000000
    6        6.975053   0.000020
    7        8.595244   0.000000
    8        9.944780   0.000000
    9       12.858097   0.000000
   10       14.330615   0.000000
   11       16.306838   0.000000
   12       17.043298   0.000000
 
  0.3750000E+00  0.1875000E+00  0.0000000E+00  0.9765625E-03
    1       -2.710896   1.000000
    2       -1.841523   1.000000
    3        1.023451   1.000000
    4        4.439828   1.000000
    5        6.643740   1.000000
    6        6.760358   0.975357
    7        8.933581   0.000000
    8        9.713874   0.000000
    9       12.895843   0.000000
   10       14.635436   0.000000
   11       16.243950   0.000000
   12       17.078932   0.000000
 
  0.4375000E+00  0.1875000E+00 -0.3469447E-17  0.9765625E-03
    1       -2.717677   1.000000
    2       -1.833896   1.000000
    3        1.020388   1.000000
    4        4.441596   1.000000
    5        6.615942   1.000000
    6        6.792005   0.857915
    7        8.947887   0.000000
    8        9.696153   0.000000
    9       12.900759   0.000000
   10       14.630659   0.000000
   11       16.231547   0.000000
   12       17.088296   0.000000
 
  0.5000000E+00  0.1875000E+00 -0.6938894E-17  0.9765625E-03
    1       -3.543155   1.000000
    2       -0.953793   1.000000
    3        1.189470   1.000000
    4        4.406217   1.000000
    5        6.558435   1.000000
    6        7.029058   0.000000
    7        8.607174   0.000000
    8        9.914535   0.000000
    9       12.882656   0.000000
   10       14.299885   0.000000
   11       16.276088   0.000000
   12       17.028424   0.000000
 
 -0.4375000E+00  0.1875000E+00  0.1301043E-17  0.9765625E-03
    1       -4.293734   1.000000
    2       -0.132822   1.000000
    3        1.555608   1.000000
    4        4.378339   1.000000
    5        6.359533   1.000000
    6        7.412106   0.000000
    7        8.421411   0.000000
    8        9.993793   0.000000
    9       12.635996   0.000000
   10       14.020423   0.000000
   11       16.466860   0.000000
   12       17.660651   0.000000
 
 -0.3750000E+00  0.1875000E+00  0.0000000E+00  0.4882812E-03
    1       -4.948694   1.000000
    2        0.562569   1.000000
    3        2.131237   1.000000
    4        4.399508   1.000000
    5        5.971244   1.000000
    6        7.855642   0.000000
    7        8.543491   0.000000
    8        9.908947   0.000000
    9       12.011152   0.000000
   10       14.113138   0.000000
   11       16.430214   0.000000
   12       16.499033   0.000000
 
  0.0000000E+00  0.2500000E+00  0.0000000E+00  0.4882812E-03
    1       -5.697042   1.000000
    2        1.210742   1.000000
    3        3.638683   1.000000
    4        4.439796   1.000000
    5        4.971403   1.000000
    6        8.705013   0.000000
    7        9.189756   0.000000
    8        9.596495   0.000000
    9       10.733916   0.000000
   10       14.500095   0.000000
   11       14.904640   0.000000
   12       16.872053   0.000000
 
  0.6250000E-01  0.2500000E+00  0.0000000E+00  0.9765625E-03
    1       -5.351298   1.000000
    2        0.732873   1.000000
    3        3.249081   1.000000
    4        4.377578   1.000000
    5        5.168178   1.000000
    6        8.464527   0.000000
    7        9.061343   0.000000
    8        9.671942   0.000000
    9       11.108064   0.000000
   10       14.448298   0.000000
   11       15.074138   0.000000
   12       16.848942   0.000000
 
  0.1250000E+00  0.2500000E+00  0.0000000E+00  0.9765625E-03
    1       -4.877762   1.000000
    2        0.282503   1.000000
    3        2.452985   1.000000
    4        4.339110   1.000000
    5        5.715757   1.000000
    6        7.972342   0.000000
    7        8.736522   0.000000
    8        9.902996   0.000000
    9       11.778465   0.000000
   10       14.247826   0.000000
   11       15.691865   0.000000
   12       17.327158   0.000000
 
  0.1875000E+00  0.2500000E+00 -0.6938894E-17  0.9765625E-03
    1       -4.286944   1.000000
    2       -0.138363   1.000000
    3        1.562792   1.000000
    4        4.371348   1.000000
    5        6.368326   1.000000
    6        7.384108   0.000000
    7        8.413861   0.000000
    8       10.027220   0.000000
    9       12.599665   0.000000
   10       14.066246   0.000000
   11       16.841114   0.000000
   12       17.306061   0.000000
 
  0.2500000E+00  0.2500000E+00  0.0000000E+00  0.9765625E-03
    1       -3.593606   1.000000
    2       -0.591051   1.000000
    3        0.762482   1.000000
    4        4.494487   1.000000
    5        6.735962   0.996048
    6        7.063515   0.000000
    7        8.226967   0.000000
    8        9.926410   0.000000
    9       13.378531   0.000000
   10       13.985065   0.000000
   11       16.601950   0.000000
   12       17.463491   0.000000
 
  0.3125000E+00  0.2500000E+00  0.1734723E-17  0.9765625E-03
    1       -2.820298   1.000000
    2       -1.208650   1.000000
    3        0.255364   1.000000
    4        4.674348   1.000000
    5        6.283814   1.000000
    6        7.413374   0.000000
    7        8.385574   0.000000
    8        9.588232   0.000000
    9       13.668664   0.000000
   10       14.285744   0.000000
   11       16.730441   0.000000
   12       17.660692   0.000000
 
  0.3750000E+00  0.2500000E+00 -0.6938894E-17  0.9765625E-03
    1       -2.098531   1.000000
    2       -1.895065   1.000000
    3        0.098885   1.000000
    4        4.781617   1.000000
    5        6.072667   1.000000
    6        7.481841   0.000000
    7        8.734202   0.000000
    8        9.236208   0.000000
    9       13.672549   0.000000
   10       14.529786   0.000000
   11       16.808106   0.000000
   12       17.677877   0.000000
 
  0.4375000E+00  0.2500000E+00 -0.3469447E-17  0.9765625E-03
    1       -2.828701   1.000000
    2       -1.196091   1.000000
    3        0.246198   1.000000
    4        4.681851   1.000000
    5        6.269161   1.000000
    6        7.433798   0.000000
    7        8.400588   0.000000
    8        9.567325   0.000000
    9       13.683163   0.000000
   10       14.271985   0.000000
   11       16.748927   0.000000
   12       17.855754   0.000000
 
  0.5000000E+00  0.2500000E+00  0.0000000E+00  0.4882812E-03
    1       -3.601148   1.000000
    2       -0.579837   1.000000
    3        0.750447   1.000000
    4        4.503855   1.000000
    5        6.669363   0.999997
    6        7.149354   0.000000
    7        8.232926   0.000000
    8        9.900145   0.000000
    9       13.443013   0.000000
   10       13.914608   0.000000
   11       16.598311   0.000000
   12       17.458091   0.000000
 
  0.0000000E+00  0.3125000E+00  0.0000000E+00  0.4882812E-03
    1       -5.081537   1.000000
    2        0.233889   1.000000
    3        3.576118   1.000000
    4        4.227630   1.000000
    5        4.829845   1.000000
    6        8.607313   0.000000
    7        9.307471   0.000000
    8        9.512443   0.000000
    9       11.025505   0.000000
   10       14.435847   0.000000
   11       15.006909   0.000000
   12       17.834779   0.000000
 
  0.6250000E-01  0.3125000E+00 -0.6938894E-17  0.9765625E-03
    1       -4.683058   1.000000
    2       -0.235332   1.000000
    3        3.075712   1.000000
    4        4.206998   1.000000
    5        5.124235   1.000000
    6        8.321492   0.000000
    7        9.139755   0.000000
    8        9.773330   0.000000
    9       11.329941   0.000000
   10       14.409041   0.000000
   11       15.271112   0.000000
   12       16.467256   0.000000
 
  0.1250000E+00  0.3125000E+00  0.0000000E+00  0.9765625E-03
    1       -4.163488   1.000000
    2       -0.636399   1.000000
    3        2.172466   1.000000
    4        4.248246   1.000000
    5        5.804391   1.000000
    6        7.715994   0.000000
    7        8.850336   0.000000
    8        9.991408   0.000000
    9       12.013905   0.000000
   10       14.360150   0.000000
   11       15.781461   0.000000
   12       16.690225   0.000000
 
  0.1875000E+00  0.3125000E+00  0.1734723E-17  0.9765625E-03
    1       -3.534984   1.000000
    2       -0.956322   1.000000
    3        1.193754   1.000000
    4        4.397292   1.000000
    5        6.562151   1.000000
    6        7.025538   0.000000
    7        8.584015   0.000000
    8        9.936459   0.000000
    9       12.866533   0.000000
   10       14.305217   0.000000
   11       16.484276   0.000000
   12       18.881367   0.000000
 
  0.2500000E+00  0.3125000E+00 -0.6938894E-17  0.9765625E-03
    1       -2.819330   1.000000
    2       -1.204654   1.000000
    3        0.252859   1.000000
    4        4.672098   1.000000
    5        6.284210   1.000000
    6        7.413718   0.000000
    7        8.387191   0.000000
    8        9.583094   0.000000
    9       13.689744   0.000000
   10       14.256957   0.000000
   11       16.715132   0.000000
   12       17.750450   0.000000
 
  0.3125000E+00  0.3125000E+00 -0.6938894E-17  0.9765625E-03
    1       -2.076371   1.000000
    2       -1.479088   1.000000
    3       -0.460303   1.000000
    4        5.056183   1.000000
    5        5.681455   1.000000
    6        8.171223   0.000000
    7        8.306969   0.000000
    8        9.008658   0.000000
    9       14.187457   0.000000
   10       14.280822   0.000000
   11       17.176637   0.000000
   12       17.699506   0.000000
 
  0.3750000E+00  0.3125000E+00  0.0000000E+00  0.4882812E-03
    1       -2.088337   1.000000
    2       -1.463875   1.000000
    3       -0.466322   1.000000
    4        5.064381   1.000000
    5        5.672961   1.000000
    6        8.178469   0.000000
    7        8.319049   0.000000
    8        8.994926   0.000000
    9       14.133662   0.000000
   10       14.339678   0.000000
   11       17.222946   0.000000
   12       17.646394   0.000000
 
  0.0000000E+00  0.3750000E+00  0.0000000E+00  0.4882812E-03
    1       -4.361863   1.000000
    2       -0.754133   1.000000
    3        3.510805   1.000000
    4        4.070907   1.000000
    5        4.649797   1.000000
    6        8.516959   0.000000
    7        9.532844   0.000000
    8        9.636460   0.000000
    9       11.043521   0.000000
   10       14.544279   0.000000
   11       15.176693   0.000000