Automatically generated mesh
    1098
Reciprocal lattice
    0.00000000000000    0.00000000000000    0.00000000000000             1
    0.06250000000000   -0.00000000000000    0.00000000000000             4
    0.12500000000000   -0.00000000000000    0.00000000000000             4
    0.18750000000000   -0.00000000000000    0.00000000000000             4
    0.25000000000000   -0.00000000000000    0.00000000000000             4
    0.31250000000000   -0.00000000000000    0.00000000000000             4
    0.37500000000000   -0.00000000000000    0.00000000000000             4
    0.43750000000000   -0.00000000000000   -0.00000000000000             4
    0.50000000000000   -0.00000000000000    0.00000000000000             2
    0.00000000000000    0.06250000000000    0.00000000000000             2
    0.06250000000000    0.06250000000000    0.00000000000000             4
    0.12500000000000    0.06250000000000    0.00000000000000             4
    0.18750000000000    0.06250000000000    0.00000000000000             4
    0.25000000000000    0.06250000000000    0.00000000000000             4
    0.31250000000000    0.06250000000000   -0.00000000000000             4
    0.37500000000000    0.06250000000000    0.00000000000000             4
    0.43750000000000    0.06250000000000   -0.00000000000000             4
    0.50000000000000    0.06250000000000    0.00000000000000             4
   -0.43750000000000    0.06250000000000    0.00000000000000             4
   -0.37500000000000    0.06250000000000    0.00000000000000             4
   -0.31250000000000    0.06250000000000    0.00000000000000             4
   -0.25000000000000    0.06250000000000    0.00000000000000             4
   -0.18750000000000    0.06250000000000    0.00000000000000             4
   -0.12500000000000    0.06250000000000    0.00000000000000             2
    0.00000000000000    0.12500000000000    0.00000000000000             2
    0.06250000000000    0.12500000000000    0.00000000000000             4
    0.12500000000000    0.12500000000000    0.00000000000000             4
    0.18750000000000    0.12500000000000   -0.00000000000000             4
    0.25000000000000    0.12500000000000    0.00000000000000             4
    0.31250000000000    0.12500000000000    0.00000000000000             4
    0.37500000000000    0.12500000000000    0.00000000000000             4
    0.43750000000000    0.12500000000000   -0.00000000000000             4
    0.50000000000000    0.12500000000000    0.00000000000000             4
   -0.43750000000000    0.12500000000000    0.00000000000000             4
   -0.37500000000000    0.12500000000000    0.00000000000000             4
   -0.31250000000000    0.12500000000000    0.00000000000000             4
   -0.25000000000000    0.12500000000000    0.00000000000000             2
    0.00000000000000    0.18750000000000    0.00000000000000             2
    0.06250000000000    0.18750000000000   -0.00000000000000             4
    0.12500000000000    0.18750000000000    0.00000000000000             4
    0.18750000000000    0.18750000000000    0.00000000000000             4
    0.25000000000000    0.18750000000000    0.00000000000000             4
    0.31250000000000    0.18750000000000   -0.00000000000000             4
    0.37500000000000    0.18750000000000    0.00000000000000             4
    0.43750000000000    0.18750000000000   -0.00000000000000             4
    0.50000000000000    0.18750000000000   -0.00000000000000             4
   -0.43750000000000    0.18750000000000    0.00000000000000             4
   -0.37500000000000    0.18750000000000    0.00000000000000             2
    0.00000000000000    0.25000000000000    0.00000000000000             2
    0.06250000000000    0.25000000000000    0.00000000000000             4
    0.12500000000000    0.25000000000000    0.00000000000000             4
    0.18750000000000    0.25000000000000   -0.00000000000000             4
    0.25000000000000    0.25000000000000    0.00000000000000             4
    0.31250000000000    0.25000000000000    0.00000000000000             4
    0.37500000000000    0.25000000000000   -0.00000000000000             4
    0.43750000000000    0.25000000000000   -0.00000000000000             4
    0.50000000000000    0.25000000000000    0.00000000000000             2
    0.00000000000000    0.31250000000000    0.00000000000000             2
    0.06250000000000    0.31250000000000   -0.00000000000000             4
    0.12500000000000    0.31250000000000    0.00000000000000             4
    0.18750000000000    0.31250000000000    0.00000000000000             4
    0.25000000000000    0.31250000000000   -0.00000000000000             4
    0.31250000000000    0.31250000000000   -0.00000000000000             4
    0.37500000000000    0.31250000000000    0.00000000000000             2
    0.00000000000000    0.37500000000000    0.00000000000000             2
    0.06250000000000    0.37500000000000    0.00000000000000             4
    0.12500000000000    0.37500000000000   -0.00000000000000             4
    0.18750000000000    0.37500000000000   -0.00000000000000             4
    0.25000000000000    0.37500000000000    0.00000000000000             2
    0.00000000000000    0.43750000000000   -0.00000000000000             2
    0.06250000000000    0.43750000000000   -0.00000000000000             4
    0.12500000000000    0.43750000000000    0.00000000000000             2
    0.00000000000000    0.50000000000000    0.00000000000000             1
    0.00000000000000    0.00000000000000    0.06250000000000             2
    0.06250000000000   -0.00000000000000    0.06250000000000             4
    0.12500000000000   -0.00000000000000    0.06250000000000             4
    0.18750000000000   -0.00000000000000    0.06250000000000             4
    0.25000000000000    0.00000000000000    0.06250000000000             4
    0.31250000000000    0.00000000000000    0.06250000000000             4
    0.37500000000000   -0.00000000000000    0.06250000000000             4
    0.43750000000000   -0.00000000000000    0.06250000000000             4
    0.50000000000000   -0.00000000000000    0.06250000000000             4
   -0.43750000000000    0.00000000000000    0.06250000000000             4
   -0.37500000000000    0.00000000000000    0.06250000000000             4
   -0.31250000000000    0.00000000000000    0.06250000000000             4
   -0.25000000000000    0.00000000000000    0.06250000000000             4
   -0.18750000000000    0.00000000000000    0.06250000000000             4
   -0.12500000000000    0.00000000000000    0.06250000000000             4
   -0.06250000000000    0.00000000000000    0.06250000000000             4
    0.00000000000000    0.06250000000000    0.06250000000000             2
    0.06250000000000    0.06250000000000    0.06250000000000             4
    0.12500000000000    0.06250000000000    0.06250000000000             4
    0.18750000000000    0.06250000000000    0.06250000000000             4
    0.25000000000000    0.06250000000000    0.06250000000000             4
    0.31250000000000    0.06250000000000    0.06250000000000             4
    0.37500000000000    0.06250000000000    0.06250000000000             4
    0.43750000000000    0.06250000000000    0.06250000000000             4
    0.50000000000000    0.06250000000000    0.06250000000000             4
   -0.43750000000000    0.06250000000000    0.06250000000000             4
   -0.37500000000000    0.06250000000000    0.06250000000000             4
   -0.31250000000000    0.06250000000000    0.06250000000000             4
   -0.25000000000000    0.06250000000000    0.06250000000000             4
   -0.18750000000000    0.06250000000000    0.06250000000000             4
   -0.12500000000000    0.06250000000000    0.06250000000000             4
    0.00000000000000    0.12500000000000    0.06250000000000             2
    0.06250000000000    0.12500000000000    0.06250000000000             4
    0.12500000000000    0.12500000000000    0.06250000000000             4
    0.18750000000000    0.12500000000000    0.06250000000000             4
    0.25000000000000    0.12500000000000    0.06250000000000             4
    0.31250000000000    0.12500000000000    0.06250000000000             4
    0.37500000000000    0.12500000000000    0.06250000000000             4
    0.43750000000000    0.12500000000000    0.06250000000000             4
    0.50000000000000    0.12500000000000    0.06250000000000             4
   -0.43750000000000    0.12500000000000    0.06250000000000             4
   -0.37500000000000    0.12500000000000    0.06250000000000             4
   -0.31250000000000    0.12500000000000    0.06250000000000             4
   -0.25000000000000    0.12500000000000    0.06250000000000             4
   -0.18750000000000    0.12500000000000    0.06250000000000             4
    0.00000000000000    0.18750000000000    0.06250000000000             2
    0.06250000000000    0.18750000000000    0.06250000000000             4
    0.12500000000000    0.18750000000000    0.06250000000000             4
    0.18750000000000    0.18750000000000    0.06250000000000             4
    0.25000000000000    0.18750000000000    0.06250000000000             4
    0.31250000000000    0.18750000000000    0.06250000000000             4
    0.37500000000000    0.18750000000000    0.06250000000000             4
    0.43750000000000    0.18750000000000    0.06250000000000             4
    0.50000000000000    0.18750000000000    0.06250000000000             4
   -0.43750000000000    0.18750000000000    0.06250000000000             4
   -0.37500000000000    0.18750000000000    0.06250000000000             4
   -0.31250000000000    0.18750000000000    0.06250000000000             4
   -0.25000000000000    0.18750000000000    0.06250000000000             4
    0.00000000000000    0.25000000000000    0.06250000000000             2
    0.06250000000000    0.25000000000000    0.06250000000000             4
    0.12500000000000    0.25000000000000    0.06250000000000             4
    0.18750000000000    0.25000000000000    0.06250000000000             4
    0.25000000000000    0.25000000000000    0.06250000000000             4
    0.31250000000000    0.25000000000000    0.06250000000000             4
    0.37500000000000    0.25000000000000    0.06250000000000             4
    0.43750000000000    0.25000000000000    0.06250000000000             4
    0.50000000000000    0.25000000000000    0.06250000000000             4
   -0.43750000000000    0.25000000000000    0.06250000000000             4
   -0.37500000000000    0.25000000000000    0.06250000000000             4
   -0.31250000000000    0.25000000000000    0.06250000000000             4
    0.00000000000000    0.31250000000000    0.06250000000000             2
    0.06250000000000    0.31250000000000    0.06250000000000             4
    0.12500000000000    0.31250000000000    0.06250000000000             4
    0.18750000000000    0.31250000000000    0.06250000000000             4
    0.25000000000000    0.31250000000000    0.06250000000000             4
    0.31250000000000    0.31250000000000    0.06250000000000             4
    0.37500000000000    0.31250000000000    0.06250000000000             4
    0.43750000000000    0.31250000000000    0.06250000000000             4
    0.50000000000000    0.31250000000000    0.06250000000000             4
   -0.43750000000000    0.31250000000000    0.06250000000000             4
   -0.37500000000000    0.31250000000000    0.06250000000000             4
    0.00000000000000    0.37500000000000    0.06250000000000             2
    0.06250000000000    0.37500000000000    0.06250000000000             4
    0.12500000000000    0.37500000000000    0.06250000000000             4
    0.18750000000000    0.37500000000000    0.06250000000000             4
    0.25000000000000    0.37500000000000    0.06250000000000             4
    0.31250000000000    0.37500000000000    0.06250000000000             4
    0.37500000000000    0.37500000000000    0.06250000000000             4
    0.43750000000000    0.37500000000000    0.06250000000000             4
    0.50000000000000    0.37500000000000    0.06250000000000             4
   -0.43750000000000    0.37500000000000    0.06250000000000             4
    0.00000000000000    0.43750000000000    0.06250000000000             2
    0.06250000000000    0.43750000000000    0.06250000000000             4
    0.12500000000000    0.43750000000000    0.06250000000000             4
    0.18750000000000    0.43750000000000    0.06250000000000             4
    0.25000000000000    0.43750000000000    0.06250000000000             4
    0.31250000000000    0.43750000000000    0.06250000000000             4
    0.37500000000000    0.43750000000000    0.06250000000000             4
    0.43750000000000    0.43750000000000    0.06250000000000             4
    0.50000000000000    0.43750000000000    0.06250000000000             4
    0.00000000000000    0.50000000000000    0.06250000000000             2
    0.06250000000000    0.50000000000000    0.06250000000000             4
    0.12500000000000    0.50000000000000    0.06250000000000             4
    0.18750000000000    0.50000000000000    0.06250000000000             4
    0.25000000000000    0.50000000000000    0.06250000000000             4
    0.31250000000000    0.50000000000000    0.06250000000000             4
    0.37500000000000    0.50000000000000    0.06250000000000             4
    0.43750000000000    0.50000000000000    0.06250000000000             4
    0.00000000000000   -0.43750000000000    0.06250000000000             2
    0.06250000000000   -0.43750000000000    0.06250000000000             4
    0.12500000000000   -0.43750000000000    0.06250000000000             4
    0.18750000000000   -0.43750000000000    0.06250000000000             4
    0.25000000000000   -0.43750000000000    0.06250000000000             4
    0.31250000000000   -0.43750000000000    0.06250000000000             4
    0.37500000000000   -0.43750000000000    0.06250000000000             4
    0.00000000000000   -0.37500000000000    0.06250000000000             2
    0.06250000000000   -0.37500000000000    0.06250000000000             4
    0.12500000000000   -0.37500000000000    0.06250000000000             4
    0.18750000000000   -0.37500000000000    0.06250000000000             4
    0.25000000000000   -0.37500000000000    0.06250000000000             4
    0.31250000000000   -0.37500000000000    0.06250000000000             4
    0.00000000000000   -0.31250000000000    0.06250000000000             2
    0.06250000000000   -0.31250000000000    0.06250000000000             4
    0.12500000000000   -0.31250000000000    0.06250000000000             4
    0.18750000000000   -0.31250000000000    0.06250000000000             4
    0.25000000000000   -0.31250000000000    0.06250000000000             4
    0.00000000000000   -0.25000000000000    0.06250000000000             2
    0.06250000000000   -0.25000000000000    0.06250000000000             4
    0.12500000000000   -0.25000000000000    0.06250000000000             4
    0.18750000000000   -0.25000000000000    0.06250000000000             4
    0.00000000000000   -0.18750000000000    0.06250000000000             2
    0.06250000000000   -0.18750000000000    0.06250000000000             4
    0.12500000000000   -0.18750000000000    0.06250000000000             4
    0.00000000000000   -0.12500000000000    0.06250000000000             2
    0.06250000000000   -0.12500000000000    0.06250000000000             4
    0.00000000000000   -0.06250000000000    0.06250000000000             2
    0.00000000000000    0.00000000000000    0.12500000000000             2
    0.06250000000000   -0.00000000000000    0.12500000000000             4
    0.12500000000000   -0.00000000000000    0.12500000000000             4
    0.18750000000000   -0.00000000000000    0.12500000000000             4
    0.25000000000000   -0.00000000000000    0.12500000000000             4
    0.31250000000000   -0.00000000000000    0.12500000000000             4
    0.37500000000000   -0.00000000000000    0.12500000000000             4
    0.43750000000000   -0.00000000000000    0.12500000000000             4
    0.50000000000000    0.00000000000000    0.12500000000000             4
   -0.43750000000000    0.00000000000000    0.12500000000000             4
   -0.37500000000000    0.00000000000000    0.12500000000000             4
   -0.31250000000000    0.00000000000000    0.12500000000000             4
   -0.25000000000000    0.00000000000000    0.12500000000000             4
   -0.18750000000000    0.00000000000000    0.12500000000000             4
   -0.12500000000000    0.00000000000000    0.12500000000000             4
   -0.06250000000000    0.00000000000000    0.12500000000000             4
    0.00000000000000    0.06250000000000    0.12500000000000             2
    0.06250000000000    0.06250000000000    0.12500000000000             4
    0.12500000000000    0.06250000000000    0.12500000000000             4
    0.18750000000000    0.06250000000000    0.12500000000000             4
    0.25000000000000    0.06250000000000    0.12500000000000             4
    0.31250000000000    0.06250000000000    0.12500000000000             4
    0.37500000000000    0.06250000000000    0.12500000000000             4
    0.43750000000000    0.06250000000000    0.12500000000000             4
    0.50000000000000    0.06250000000000    0.12500000000000             4
   -0.43750000000000    0.06250000000000    0.12500000000000             4
   -0.37500000000000    0.06250000000000    0.12500000000000             4
   -0.31250000000000    0.06250000000000    0.12500000000000             4
   -0.25000000000000    0.06250000000000    0.12500000000000             4
   -0.18750000000000    0.06250000000000    0.12500000000000             4
   -0.12500000000000    0.06250000000000    0.12500000000000             4
    0.00000000000000    0.12500000000000    0.12500000000000             2
    0.06250000000000    0.12500000000000    0.12500000000000             4
    0.12500000000000    0.12500000000000    0.12500000000000             4
    0.18750000000000    0.12500000000000    0.12500000000000             4
    0.25000000000000    0.12500000000000    0.12500000000000             4
    0.31250000000000    0.12500000000000    0.12500000000000             4
    0.37500000000000    0.12500000000000    0.12500000000000             4
    0.43750000000000    0.12500000000000    0.12500000000000             4
    0.50000000000000    0.12500000000000    0.12500000000000             4
   -0.43750000000000    0.12500000000000    0.12500000000000             4
   -0.37500000000000    0.12500000000000    0.12500000000000             4
   -0.31250000000000    0.12500000000000    0.12500000000000             4
   -0.25000000000000    0.12500000000000    0.12500000000000             4
   -0.18750000000000    0.12500000000000    0.12500000000000             4
    0.00000000000000    0.18750000000000    0.12500000000000             2
    0.06250000000000    0.18750000000000    0.12500000000000             4
    0.12500000000000    0.18750000000000    0.12500000000000             4
    0.18750000000000    0.18750000000000    0.12500000000000             4
    0.25000000000000    0.18750000000000    0.12500000000000             4
    0.31250000000000    0.18750000000000    0.12500000000000             4
    0.37500000000000    0.18750000000000    0.12500000000000             4
    0.43750000000000    0.18750000000000    0.12500000000000             4
    0.50000000000000    0.18750000000000    0.12500000000000             4
   -0.43750000000000    0.18750000000000    0.12500000000000             4
   -0.37500000000000    0.18750000000000    0.12500000000000             4
   -0.31250000000000    0.18750000000000    0.12500000000000             4
   -0.25000000000000    0.18750000000000    0.12500000000000             4
    0.00000000000000    0.25000000000000    0.12500000000000             2
    0.06250000000000    0.25000000000000    0.12500000000000             4
    0.12500000000000    0.25000000000000    0.12500000000000             4
    0.18750000000000    0.25000000000000    0.12500000000000             4
    0.25000000000000    0.25000000000000    0.12500000000000             4
    0.31250000000000    0.25000000000000    0.12500000000000             4
    0.37500000000000    0.25000000000000    0.12500000000000             4
    0.43750000000000    0.25000000000000    0.12500000000000             4
    0.50000000000000    0.25000000000000    0.12500000000000             4
   -0.43750000000000    0.25000000000000    0.12500000000000             4
   -0.37500000000000    0.25000000000000    0.12500000000000             4
   -0.31250000000000    0.25000000000000    0.12500000000000             4
    0.00000000000000    0.31250000000000    0.12500000000000             2
    0.06250000000000    0.31250000000000    0.12500000000000             4
    0.12500000000000    0.31250000000000    0.12500000000000             4
    0.18750000000000    0.31250000000000    0.12500000000000             4
    0.25000000000000    0.31250000000000    0.12500000000000             4
    0.31250000000000    0.31250000000000    0.12500000000000             4
    0.37500000000000    0.31250000000000    0.12500000000000             4
    0.43750000000000    0.31250000000000    0.12500000000000             4
    0.50000000000000    0.31250000000000    0.12500000000000             4
   -0.43750000000000    0.31250000000000    0.12500000000000             4
   -0.37500000000000    0.31250000000000    0.12500000000000             4
    0.00000000000000    0.37500000000000    0.12500000000000             2
    0.06250000000000    0.37500000000000    0.12500000000000             4
    0.12500000000000    0.37500000000000    0.12500000000000             4
    0.18750000000000    0.37500000000000    0.12500000000000             4
    0.25000000000000    0.37500000000000    0.12500000000000             4
    0.31250000000000    0.37500000000000    0.12500000000000             4
    0.37500000000000    0.37500000000000    0.12500000000000             4
    0.43750000000000    0.37500000000000    0.12500000000000             4
    0.50000000000000    0.37500000000000    0.12500000000000             4
   -0.43750000000000    0.37500000000000    0.12500000000000             4
    0.00000000000000    0.43750000000000    0.12500000000000             2
    0.06250000000000    0.43750000000000    0.12500000000000             4
    0.12500000000000    0.43750000000000    0.12500000000000             4
    0.18750000000000    0.43750000000000    0.12500000000000             4
    0.25000000000000    0.43750000000000    0.12500000000000             4
    0.31250000000000    0.43750000000000    0.12500000000000             4
    0.37500000000000    0.43750000000000    0.12500000000000             4
    0.43750000000000    0.43750000000000    0.12500000000000             4
    0.50000000000000    0.43750000000000    0.12500000000000             4
    0.00000000000000    0.50000000000000    0.12500000000000             2
    0.06250000000000    0.50000000000000    0.12500000000000             4
    0.12500000000000    0.50000000000000    0.12500000000000             4
    0.18750000000000    0.50000000000000    0.12500000000000             4
    0.25000000000000    0.50000000000000    0.12500000000000             4
    0.31250000000000    0.50000000000000    0.12500000000000             4
    0.37500000000000    0.50000000000000    0.12500000000000             4
    0.43750000000000    0.50000000000000    0.12500000000000             4
    0.00000000000000   -0.43750000000000    0.12500000000000             2
    0.06250000000000   -0.43750000000000    0.12500000000000             4
    0.12500000000000   -0.43750000000000    0.12500000000000             4
    0.18750000000000   -0.43750000000000    0.12500000000000             4
    0.25000000000000   -0.43750000000000    0.12500000000000             4
    0.31250000000000   -0.43750000000000    0.12500000000000             4
    0.37500000000000   -0.43750000000000    0.12500000000000             4
    0.00000000000000   -0.37500000000000    0.12500000000000             2
    0.06250000000000   -0.37500000000000    0.12500000000000             4
    0.12500000000000   -0.37500000000000    0.12500000000000             4
    0.18750000000000   -0.37500000000000    0.12500000000000             4
    0.25000000000000   -0.37500000000000    0.12500000000000             4
    0.31250000000000   -0.37500000000000    0.12500000000000             4
    0.00000000000000   -0.31250000000000    0.12500000000000             2
    0.06250000000000   -0.31250000000000    0.12500000000000             4
    0.12500000000000   -0.31250000000000    0.12500000000000             4
    0.18750000000000   -0.31250000000000    0.12500000000000             4
    0.25000000000000   -0.31250000000000    0.12500000000000             4
    0.00000000000000   -0.25000000000000    0.12500000000000             2
    0.06250000000000   -0.25000000000000    0.12500000000000             4
    0.12500000000000   -0.25000000000000    0.12500000000000             4
    0.18750000000000   -0.25000000000000    0.12500000000000             4
    0.00000000000000   -0.18750000000000    0.12500000000000             2
    0.06250000000000   -0.18750000000000    0.12500000000000             4
    0.12500000000000   -0.18750000000000    0.12500000000000             4
    0.00000000000000   -0.12500000000000    0.12500000000000             2
    0.06250000000000   -0.12500000000000    0.12500000000000             4
    0.00000000000000   -0.06250000000000    0.12500000000000             2
    0.00000000000000    0.00000000000000    0.18750000000000             2
    0.06250000000000   -0.00000000000000    0.18750000000000             4
    0.12500000000000    0.00000000000000    0.18750000000000             4
    0.18750000000000    0.00000000000000    0.18750000000000             4
    0.25000000000000   -0.00000000000000    0.18750000000000             4
    0.31250000000000   -0.00000000000000    0.18750000000000             4
    0.37500000000000   -0.00000000000000    0.18750000000000             4
    0.43750000000000   -0.00000000000000    0.18750000000000             4
    0.50000000000000   -0.00000000000000    0.18750000000000             4
   -0.43750000000000    0.00000000000000    0.18750000000000             4
   -0.37500000000000   -0.00000000000000    0.18750000000000             4
   -0.31250000000000    0.00000000000000    0.18750000000000             4
   -0.25000000000000    0.00000000000000    0.18750000000000             4
   -0.18750000000000    0.00000000000000    0.18750000000000             4
   -0.12500000000000    0.00000000000000    0.18750000000000             4
   -0.06250000000000    0.00000000000000    0.18750000000000             4
    0.00000000000000    0.06250000000000    0.18750000000000             2
    0.06250000000000    0.06250000000000    0.18750000000000             4
    0.12500000000000    0.06250000000000    0.18750000000000             4
    0.18750000000000    0.06250000000000    0.18750000000000             4
    0.25000000000000    0.06250000000000    0.18750000000000             4
    0.31250000000000    0.06250000000000    0.18750000000000             4
    0.37500000000000    0.06250000000000    0.18750000000000             4
    0.43750000000000    0.06250000000000    0.18750000000000             4
    0.50000000000000    0.06250000000000    0.18750000000000             4
   -0.43750000000000    0.06250000000000    0.18750000000000             4
   -0.37500000000000    0.06250000000000    0.18750000000000             4
   -0.31250000000000    0.06250000000000    0.18750000000000             4
   -0.25000000000000    0.06250000000000    0.18750000000000             4
   -0.18750000000000    0.06250000000000    0.18750000000000             4
   -0.12500000000000    0.06250000000000    0.18750000000000             4
    0.00000000000000    0.12500000000000    0.18750000000000             2
    0.06250000000000    0.12500000000000    0.18750000000000             4
    0.12500000000000    0.12500000000000    0.18750000000000             4
    0.18750000000000    0.12500000000000    0.18750000000000             4
    0.25000000000000    0.12500000000000    0.18750000000000             4
    0.31250000000000    0.12500000000000    0.18750000000000             4
    0.37500000000000    0.12500000000000    0.18750000000000             4
    0.43750000000000    0.12500000000000    0.18750000000000             4
    0.50000000000000    0.12500000000000    0.18750000000000             4
   -0.43750000000000    0.12500000000000    0.18750000000000             4
   -0.37500000000000    0.12500000000000    0.18750000000000             4
   -0.31250000000000    0.12500000000000    0.18750000000000             4
   -0.25000000000000    0.12500000000000    0.18750000000000             4
   -0.18750000000000    0.12500000000000    0.18750000000000             4
    0.00000000000000    0.18750000000000    0.18750000000000             2
    0.06250000000000    0.18750000000000    0.18750000000000             4
    0.12500000000000    0.18750000000000    0.18750000000000             4
    0.18750000000000    0.18750000000000    0.18750000000000             4
    0.25000000000000    0.18750000000000    0.18750000000000             4
    0.31250000000000    0.18750000000000    0.18750000000000             4
    0.37500000000000    0.18750000000000    0.18750000000000             4
    0.43750000000000    0.18750000000000    0.18750000000000             4
    0.50000000000000    0.18750000000000    0.18750000000000             4