       N       E                     dE             d eps       ncg     rms          rms(c)
RMM:   1     0.489814998645E+02    0.48981E+02   -0.24724E+03 13176   0.655E+02
RMM:   2    -0.101235977608E+02   -0.59105E+02   -0.49380E+02 13176   0.156E+02
RMM:   3    -0.244561992870E+02   -0.14333E+02   -0.98454E+01 13176   0.531E+01
RMM:   4    -0.278253460456E+02   -0.33691E+01   -0.20980E+01 13176   0.366E+01
RMM:   5    -0.286080562513E+02   -0.78271E+00   -0.48116E+00 13176   0.134E+01
RMM:   6    -0.287700974083E+02   -0.16204E+00   -0.10631E+00 13176   0.793E+00
RMM:   7    -0.288122436417E+02   -0.42146E-01   -0.32419E-01 13176   0.320E+00
RMM:   8    -0.288237803786E+02   -0.11537E-01   -0.84798E-02 13176   0.202E+00
RMM:   9    -0.288282833473E+02   -0.45030E-02   -0.39498E-02 28748   0.840E-01
RMM:  10    -0.288285152124E+02   -0.23187E-03   -0.20227E-03 28292   0.168E-01
RMM:  11    -0.288285227257E+02   -0.75133E-05   -0.60892E-05 25376   0.289E-02
RMM:  12    -0.288285230931E+02   -0.36741E-06   -0.30243E-06 21286   0.614E-03    0.262E+01
RMM:  13    -0.241647324254E+02    0.46638E+01   -0.77087E+00 26352   0.165E+01    0.734E+00
RMM:  14    -0.240921149693E+02    0.72617E-01   -0.16023E-01 26354   0.204E+00    0.436E+00
RMM:  15    -0.240595799135E+02    0.32535E-01   -0.37966E-02 26352   0.152E+00    0.309E-01
RMM:  16    -0.240592001439E+02    0.37977E-03   -0.54836E-03 26352   0.410E-01    0.262E-01
RMM:  17    -0.240583656739E+02    0.83447E-03   -0.14511E-03 26352   0.215E-01    0.679E-02
RMM:  18    -0.240582758849E+02    0.89789E-04   -0.10815E-04 26352   0.690E-02    0.155E-02
RMM:  19    -0.240582735547E+02    0.23302E-05   -0.30756E-06 21737   0.714E-03    0.349E-03
RMM:  20    -0.240582726907E+02    0.86410E-06   -0.54014E-07 19359   0.454E-03
   1 F= -.24058273E+02 E0= -.24058111E+02  d E =-.240583E+02
       N       E                     dE             d eps       ncg     rms          rms(c)
RMM:   1    -0.240583235240E+02   -0.49969E-04   -0.50869E-03 26352   0.473E-01    0.245E-02
RMM:   2    -0.240583076553E+02    0.15869E-04   -0.41722E-05 26217   0.656E-02    0.146E-02
RMM:   3    -0.240583017153E+02    0.59400E-05   -0.16736E-05 26088   0.220E-02    0.164E-03
RMM:   4    -0.240583017022E+02    0.13176E-07   -0.15537E-07 15807   0.377E-03
   2 F= -.24058302E+02 E0= -.24058140E+02  d E =-.290115E-04
       N       E                     dE             d eps       ncg     rms          rms(c)
RMM:   1    -0.240583123989E+02   -0.10684E-04   -0.53443E-04 26352   0.153E-01    0.784E-03
RMM:   2    -0.240583107350E+02    0.16639E-05   -0.42870E-06 21867   0.211E-02    0.465E-03
RMM:   3    -0.240583101160E+02    0.61892E-06   -0.17670E-06 17705   0.732E-03
   3 F= -.24058310E+02 E0= -.24058148E+02  d E =-.841389E-05
