 vasp.5.4.4.18Apr17-6-g9f103f2a35 (build Nov 22 2017 20:28:56) complex          
  
 executed on             LinuxIFC date 2019.09.11  22:44:26
 running on   28 total cores
 distrk:  each k-point on   28 cores,    1 groups
 distr:  one band on NCORES_PER_BAND=   7 cores,    4 groups


--------------------------------------------------------------------------------------------------------


 INCAR:
 POTCAR:    PAW_PBE Ti 08Apr2002                  
 POTCAR:    PAW_PBE B 06Sep2000                   
 POTCAR:    PAW_PBE Ti 08Apr2002                  
   VRHFIN =Ti: d3 s1                                                            
   LEXCH  = PE                                                                  
   EATOM  =    94.7928 eV,    6.9671 Ry                                         
                                                                                
   TITEL  = PAW_PBE Ti 08Apr2002                                                
   LULTRA =        F    use ultrasoft PP ?                                      
   IUNSCR =        1    unscreen: 0-lin 1-nonlin 2-no                           
   RPACOR =    2.200    partial core radius                                     
   POMASS =   47.880; ZVAL   =    4.000    mass and valenz                      
   RCORE  =    2.800    outmost cutoff radius                                   
   RWIGS  =    2.500; RWIGS  =    1.323    wigner-seitz radius (au A)           
   ENMAX  =  178.330; ENMIN  =  133.747 eV                                      
   RCLOC  =    2.215    cutoff for local pot                                    
   LCOR   =        T    correct aug charges                                     
   LPAW   =        T    paw PP                                                  
   EAUG   =  328.883                                                            
   DEXC   =    0.000                                                            
   RMAX   =    2.868    core radius for proj-oper                               
   RAUG   =    1.300    factor for augmentation sphere                          
   RDEP   =    2.885    radius for radial grids                                 
   RDEPT  =    2.320    core radius for aug-charge                              
                                                                                
   Atomic configuration                                                         
    9 entries                                                                   
     n  l   j            E        occ.                                          
     1  0  0.50     -4865.3608   2.0000                                         
     2  0  0.50      -533.1367   2.0000                                         
     2  1  1.50      -440.5031   6.0000                                         
     3  0  0.50       -59.3186   2.0000                                         
     3  1  1.50       -35.7012   6.0000                                         
     3  2  2.50        -1.9157   3.0000                                         
     4  0  0.50        -3.7291   1.0000                                         
     4  1  1.50        -4.0817   0.0000                                         
     4  3  2.50        -1.3606   0.0000                                         
   Description                                                                  
     l       E           TYP  RCUT    TYP  RCUT                                 
     2     -1.9156924     23  2.800                                             
     2     -0.4062961     23  2.800                                             
     0     -3.7290832     23  2.800                                             
     0     20.4087390     23  2.800                                             
     1     -5.4423304     23  2.800                                             
  local pseudopotential read in
  partial core-charges read in
  partial kinetic energy density read in
  atomic valenz-charges read in
  non local Contribution for L=           2  read in
    real space projection operators read in
  non local Contribution for L=           2  read in
    real space projection operators read in
  non local Contribution for L=           0  read in
    real space projection operators read in
  non local Contribution for L=           0  read in
    real space projection operators read in
  non local Contribution for L=           1  read in
    real space projection operators read in
    PAW grid and wavefunctions read in
 
   number of l-projection  operators is LMAX  =           5
   number of lm-projection operators is LMMAX =          15
 
 POTCAR:    PAW_PBE B 06Sep2000                   
   VRHFIN =B: s2p1                                                              
   LEXCH  = PE                                                                  
   EATOM  =    71.1703 eV,    5.2309 Ry                                         
                                                                                
   TITEL  = PAW_PBE B 06Sep2000                                                 
   LULTRA =        F    use ultrasoft PP ?                                      
   IUNSCR =        1    unscreen: 0-lin 1-nonlin 2-no                           
   RPACOR =    1.200    partial core radius                                     
   POMASS =   10.811; ZVAL   =    3.000    mass and valenz                      
   RCORE  =    1.700    outmost cutoff radius                                   
   RWIGS  =    1.710; RWIGS  =    0.905    wigner-seitz radius (au A)           
   ENMAX  =  318.614; ENMIN  =  238.960 eV                                      
   ICORE  =        2    local potential                                         
   LCOR   =        T    correct aug charges                                     
   LPAW   =        T    paw PP                                                  
   EAUG   =  535.514                                                            
   DEXC   =    0.000                                                            
   RMAX   =    1.732    core radius for proj-oper                               
   RAUG   =    1.300    factor for augmentation sphere                          
   RDEP   =    1.757    radius for radial grids                                 
   RDEPT  =    1.436    core radius for aug-charge                              
                                                                                
   Atomic configuration                                                         
    4 entries                                                                   
     n  l   j            E        occ.                                          
     1  0  0.50      -180.5896   2.0000                                         
     2  0  0.50        -9.4431   2.0000                                         
     2  1  0.50        -3.6068   1.0000                                         
     3  2  1.50        -4.0817   0.0000                                         
   Description                                                                  
     l       E           TYP  RCUT    TYP  RCUT                                 
     0     -9.4430752     23  1.500                                             
     0      0.8675899     23  1.500                                             
     1     -3.6067955     23  1.700                                             
     1      6.1086146     23  1.700                                             
     2     -4.0817478      7  1.700                                             
  local pseudopotential read in
  partial core-charges read in
  partial kinetic energy density read in
  atomic valenz-charges read in
  non local Contribution for L=           0  read in
    real space projection operators read in
  non local Contribution for L=           0  read in
    real space projection operators read in
  non local Contribution for L=           1  read in
    real space projection operators read in
  non local Contribution for L=           1  read in
    real space projection operators read in
    PAW grid and wavefunctions read in
 
   number of l-projection  operators is LMAX  =           4
   number of lm-projection operators is LMMAX =           8
 
  PAW_PBE Ti 08Apr2002                  :
 energy of atom  1       EATOM=  -94.7928
 kinetic energy error for atom=    0.0001 (will be added to EATOM!!)
  PAW_PBE B 06Sep2000                   :
 energy of atom  2       EATOM=  -71.1703
 kinetic energy error for atom=    0.0007 (will be added to EATOM!!)
 
 
 POSCAR: Ti  B                                   
  positions in direct lattice
  No initial velocities read in
 exchange correlation table for  LEXCH =        8
   RHO(1)=    0.500       N(1)  =     2000
   RHO(2)=  100.500       N(2)  =     4000
 


--------------------------------------------------------------------------------------------------------


 ion  position               nearest neighbor table
   1  0.000  0.000  0.000-   2 2.25   3 2.25   3 2.28   2 2.28   3 2.28   2 2.28   2 2.35   3 2.35
                             3 2.35   2 2.35   3 2.39   2 2.39
   2  0.333  0.667  0.500-   3 1.75   3 1.75   3 1.75   1 2.25   1 2.28   1 2.28   1 2.35   1 2.35
                             1 2.39
   3  0.667  0.333  0.500-   2 1.75   2 1.75   2 1.75   1 2.25   1 2.28   1 2.28   1 2.35   1 2.35
                             1 2.39
 
  LATTYP: Found a base centered monoclinic cell.
 ALAT       =     5.2555613247
 B/A-ratio  =     0.5770906368
 C/A-ratio  =     1.1232940275
 COS(beta)  =    -0.7435254532
  
  Lattice vectors:
  
 A1 = (  -1.5164676158,   2.6265989586,  -0.0787979688)
 A2 = (   1.5164676158,   2.6265989586,  -0.0787979688)
 A3 = (  -0.0000000000,  -5.1564272319,  -2.8745522041)


Analysis of symmetry for initial positions (statically):
=====================================================================
 Subroutine PRICEL returns:
 Original cell was already a primitive cell.
 

 Routine SETGRP: Setting up the symmetry group for a 
 base centered monoclinic supercell.


 Subroutine GETGRP returns: Found  4 space group operations
 (whereof  4 operations were pure point group operations)
 out of a pool of  4 trial point group operations.


The static configuration has the point symmetry C_2h.


Analysis of symmetry for dynamics (positions and initial velocities):
=====================================================================
 Subroutine PRICEL returns:
 Original cell was already a primitive cell.
 

 Routine SETGRP: Setting up the symmetry group for a 
 base centered monoclinic supercell.


 Subroutine GETGRP returns: Found  4 space group operations
 (whereof  4 operations were pure point group operations)
 out of a pool of  4 trial point group operations.


The dynamic configuration has the point symmetry C_2h.


 Subroutine INISYM returns: Found  4 space group operations
 (whereof  4 operations are pure point group operations),
 and found     1 'primitive' translations

 
 
 KPOINTS: A                                       

Automatic generation of k-mesh.
Space group operators:
 irot       det(A)        alpha          n_x          n_y          n_z        tau_x        tau_y        tau_z
    1     1.000000     0.000000     1.000000     0.000000     0.000000     0.000000     0.000000     0.000000
    2    -1.000000     0.000000     1.000000     0.000000     0.000000     0.000000     0.000000     0.000000
    3     1.000000   180.000000     1.000000     0.000000     0.000000     0.000000     0.000000     0.000000
    4    -1.000000   180.000000     1.000000     0.000000     0.000000     0.000000     0.000000     0.000000
 
 Subroutine IBZKPT returns following result:
 ===========================================
 
 Found   1098 irreducible k-points:
 
 Following reciprocal coordinates:
            Coordinates               Weight
  0.000000  0.000000  0.000000      1.000000
  0.062500 -0.000000  0.000000      4.000000
  0.125000 -0.000000  0.000000      4.000000
  0.187500 -0.000000  0.000000      4.000000
  0.250000 -0.000000  0.000000      4.000000
  0.312500 -0.000000  0.000000      4.000000
  0.375000 -0.000000  0.000000      4.000000
  0.437500 -0.000000 -0.000000      4.000000
  0.500000 -0.000000  0.000000      2.000000
  0.000000  0.062500  0.000000      2.000000
  0.062500  0.062500  0.000000      4.000000
  0.125000  0.062500  0.000000      4.000000
  0.187500  0.062500  0.000000      4.000000
  0.250000  0.062500  0.000000      4.000000
  0.312500  0.062500 -0.000000      4.000000
  0.375000  0.062500  0.000000      4.000000
  0.437500  0.062500 -0.000000      4.000000
  0.500000  0.062500  0.000000      4.000000
 -0.437500  0.062500  0.000000      4.000000
 -0.375000  0.062500  0.000000      4.000000
 -0.312500  0.062500  0.000000      4.000000
 -0.250000  0.062500  0.000000      4.000000
 -0.187500  0.062500  0.000000      4.000000
 -0.125000  0.062500  0.000000      2.000000
  0.000000  0.125000  0.000000      2.000000
  0.062500  0.125000  0.000000      4.000000
  0.125000  0.125000  0.000000      4.000000
  0.187500  0.125000 -0.000000      4.000000
  0.250000  0.125000  0.000000      4.000000
  0.312500  0.125000  0.000000      4.000000
  0.375000  0.125000  0.000000      4.000000
  0.437500  0.125000 -0.000000      4.000000
  0.500000  0.125000  0.000000      4.000000
 -0.437500  0.125000  0.000000      4.000000
 -0.375000  0.125000  0.000000      4.000000
 -0.312500  0.125000  0.000000      4.000000
 -0.250000  0.125000  0.000000      2.000000
  0.000000  0.187500  0.000000      2.000000
  0.062500  0.187500 -0.000000      4.000000
  0.125000  0.187500  0.000000      4.000000
  0.187500  0.187500  0.000000      4.000000
  0.250000  0.187500  0.000000      4.000000
  0.312500  0.187500 -0.000000      4.000000
  0.375000  0.187500  0.000000      4.000000
  0.437500  0.187500 -0.000000      4.000000
  0.500000  0.187500 -0.000000      4.000000
 -0.437500  0.187500  0.000000      4.000000
 -0.375000  0.187500  0.000000      2.000000
  0.000000  0.250000  0.000000      2.000000
  0.062500  0.250000  0.000000      4.000000
  0.125000  0.250000  0.000000      4.000000
  0.187500  0.250000 -0.000000      4.000000
  0.250000  0.250000  0.000000      4.000000
  0.312500  0.250000  0.000000      4.000000
  0.375000  0.250000 -0.000000      4.000000
  0.437500  0.250000 -0.000000      4.000000
  0.500000  0.250000  0.000000      2.000000
  0.000000  0.312500  0.000000      2.000000
  0.062500  0.312500 -0.000000      4.000000
  0.125000  0.312500  0.000000      4.000000
  0.187500  0.312500  0.000000      4.000000
  0.250000  0.312500 -0.000000      4.000000
  0.312500  0.312500 -0.000000      4.000000
  0.375000  0.312500  0.000000      2.000000
  0.000000  0.375000  0.000000      2.000000
  0.062500  0.375000  0.000000      4.000000
  0.125000  0.375000 -0.000000      4.000000
  0.187500  0.375000 -0.000000      4.000000
  0.250000  0.375000  0.000000      2.000000
  0.000000  0.437500 -0.000000      2.000000
  0.062500  0.437500 -0.000000      4.000000
  0.125000  0.437500  0.000000      2.000000
  0.000000  0.500000  0.000000      1.000000
  0.000000  0.000000  0.062500      2.000000
  0.062500 -0.000000  0.062500      4.000000
  0.125000 -0.000000  0.062500      4.000000
  0.187500 -0.000000  0.062500      4.000000
  0.250000  0.000000  0.062500      4.000000
  0.312500  0.000000  0.062500      4.000000
  0.375000 -0.000000  0.062500      4.000000
  0.437500 -0.000000  0.062500      4.000000
  0.500000 -0.000000  0.062500      4.000000
 -0.437500  0.000000  0.062500      4.000000
 -0.375000  0.000000  0.062500      4.000000
 -0.312500  0.000000  0.062500      4.000000
 -0.250000  0.000000  0.062500      4.000000
 -0.187500  0.000000  0.062500      4.000000
 -0.125000  0.000000  0.062500      4.000000
 -0.062500  0.000000  0.062500      4.000000
  0.000000  0.062500  0.062500      2.000000
  0.062500  0.062500  0.062500      4.000000
  0.125000  0.062500  0.062500      4.000000
  0.187500  0.062500  0.062500      4.000000
  0.250000  0.062500  0.062500      4.000000
  0.312500  0.062500  0.062500      4.000000
  0.375000  0.062500  0.062500      4.000000
  0.437500  0.062500  0.062500      4.000000
  0.500000  0.062500  0.062500      4.000000
 -0.437500  0.062500  0.062500      4.000000
 -0.375000  0.062500  0.062500      4.000000
 -0.312500  0.062500  0.062500      4.000000
 -0.250000  0.062500  0.062500      4.000000
 -0.187500  0.062500  0.062500      4.000000
 -0.125000  0.062500  0.062500      4.000000
  0.000000  0.125000  0.062500      2.000000
  0.062500  0.125000  0.062500      4.000000
  0.125000  0.125000  0.062500      4.000000
  0.187500  0.125000  0.062500      4.000000
  0.250000  0.125000  0.062500      4.000000
  0.312500  0.125000  0.062500      4.000000
  0.375000  0.125000  0.062500      4.000000
  0.437500  0.125000  0.062500      4.000000
  0.500000  0.125000  0.062500      4.000000
 -0.437500  0.125000  0.062500      4.000000
 -0.375000  0.125000  0.062500      4.000000
 -0.312500  0.125000  0.062500      4.000000
 -0.250000  0.125000  0.062500      4.000000
 -0.187500  0.125000  0.062500      4.000000
  0.000000  0.187500  0.062500      2.000000
  0.062500  0.187500  0.062500      4.000000
  0.125000  0.187500  0.062500      4.000000
  0.187500  0.187500  0.062500      4.000000
  0.250000  0.187500  0.062500      4.000000
  0.312500  0.187500  0.062500      4.000000
  0.375000  0.187500  0.062500      4.000000
  0.437500  0.187500  0.062500      4.000000
  0.500000  0.187500  0.062500      4.000000
 -0.437500  0.187500  0.062500      4.000000
 -0.375000  0.187500  0.062500      4.000000
 -0.312500  0.187500  0.062500      4.000000
 -0.250000  0.187500  0.062500      4.000000
  0.000000  0.250000  0.062500      2.000000
  0.062500  0.250000  0.062500      4.000000
  0.125000  0.250000  0.062500      4.000000
  0.187500  0.250000  0.062500      4.000000
  0.250000  0.250000  0.062500      4.000000
  0.312500  0.250000  0.062500      4.000000
  0.375000  0.250000  0.062500      4.000000
  0.437500  0.250000  0.062500      4.000000
  0.500000  0.250000  0.062500      4.000000
 -0.437500  0.250000  0.062500      4.000000
 -0.375000  0.250000  0.062500      4.000000
 -0.312500  0.250000  0.062500      4.000000
  0.000000  0.312500  0.062500      2.000000
  0.062500  0.312500  0.062500      4.000000
  0.125000  0.312500  0.062500      4.000000
  0.187500  0.312500  0.062500      4.000000
  0.250000  0.312500  0.062500      4.000000
  0.312500  0.312500  0.062500      4.000000
  0.375000  0.312500  0.062500      4.000000
  0.437500  0.312500  0.062500      4.000000
  0.500000  0.312500  0.062500      4.000000
 -0.437500  0.312500  0.062500      4.000000
 -0.375000  0.312500  0.062500      4.000000
  0.000000  0.375000  0.062500      2.000000
  0.062500  0.375000  0.062500      4.000000
  0.125000  0.375000  0.062500      4.000000
  0.187500  0.375000  0.062500      4.000000
  0.250000  0.375000  0.062500      4.000000
  0.312500  0.375000  0.062500      4.000000
  0.375000  0.375000  0.062500      4.000000
  0.437500  0.375000  0.062500      4.000000
  0.500000  0.375000  0.062500      4.000000
 -0.437500  0.375000  0.062500      4.000000
  0.000000  0.437500  0.062500      2.000000
  0.062500  0.437500  0.062500      4.000000
  0.125000  0.437500  0.062500      4.000000
  0.187500  0.437500  0.062500      4.000000
  0.250000  0.437500  0.062500      4.000000
  0.312500  0.437500  0.062500      4.000000
  0.375000  0.437500  0.062500      4.000000
  0.437500  0.437500  0.062500      4.000000
  0.500000  0.437500  0.062500      4.000000
  0.000000  0.500000  0.062500      2.000000
  0.062500  0.500000  0.062500      4.000000
  0.125000  0.500000  0.062500      4.000000
  0.187500  0.500000  0.062500      4.000000
  0.250000  0.500000  0.062500      4.000000
  0.312500  0.500000  0.062500      4.000000
  0.375000  0.500000  0.062500      4.000000
  0.437500  0.500000  0.062500      4.000000
  0.000000 -0.437500  0.062500      2.000000
  0.062500 -0.437500  0.062500      4.000000
  0.125000 -0.437500  0.062500      4.000000
  0.187500 -0.437500  0.062500      4.000000
  0.250000 -0.437500  0.062500      4.000000
  0.312500 -0.437500  0.062500      4.000000
  0.375000 -0.437500  0.062500      4.000000
  0.000000 -0.375000  0.062500      2.000000
  0.062500 -0.375000  0.062500      4.000000
  0.125000 -0.375000  0.062500      4.000000
  0.187500 -0.375000  0.062500      4.000000
  0.250000 -0.375000  0.062500      4.000000
  0.312500 -0.375000  0.062500      4.000000
  0.000000 -0.312500  0.062500      2.000000
  0.062500 -0.312500  0.062500      4.000000
  0.125000 -0.312500  0.062500      4.000000
  0.187500 -0.312500  0.062500      4.000000
  0.250000 -0.312500  0.062500      4.000000
  0.000000 -0.250000  0.062500      2.000000
  0.062500 -0.250000  0.062500      4.000000
  0.125000 -0.250000  0.062500      4.000000
  0.187500 -0.250000  0.062500      4.000000
  0.000000 -0.187500  0.062500      2.000000
  0.062500 -0.187500  0.062500      4.000000
  0.125000 -0.187500  0.062500      4.000000
  0.000000 -0.125000  0.062500      2.000000
  0.062500 -0.125000  0.062500      4.000000
  0.000000 -0.062500  0.062500      2.000000
  0.000000  0.000000  0.125000      2.000000
  0.062500 -0.000000  0.125000      4.000000
  0.125000 -0.000000  0.125000      4.000000
  0.187500 -0.000000  0.125000      4.000000
  0.250000 -0.000000  0.125000      4.000000
  0.312500 -0.000000  0.125000      4.000000
  0.375000 -0.000000  0.125000      4.000000
  0.437500 -0.000000  0.125000      4.000000
  0.500000  0.000000  0.125000      4.000000
 -0.437500  0.000000  0.125000      4.000000
 -0.375000  0.000000  0.125000      4.000000
 -0.312500  0.000000  0.125000      4.000000
 -0.250000  0.000000  0.125000      4.000000
 -0.187500  0.000000  0.125000      4.000000
 -0.125000  0.000000  0.125000      4.000000
 -0.062500  0.000000  0.125000      4.000000
  0.000000  0.062500  0.125000      2.000000
  0.062500  0.062500  0.125000      4.000000
  0.125000  0.062500  0.125000      4.000000
  0.187500  0.062500  0.125000      4.000000
  0.250000  0.062500  0.125000      4.000000
  0.312500  0.062500  0.125000      4.000000
  0.375000  0.062500  0.125000      4.000000
  0.437500  0.062500  0.125000      4.000000
  0.500000  0.062500  0.125000      4.000000
 -0.437500  0.062500  0.125000      4.000000
 -0.375000  0.062500  0.125000      4.000000
 -0.312500  0.062500  0.125000      4.000000
 -0.250000  0.062500  0.125000      4.000000
 -0.187500  0.062500  0.125000      4.000000
 -0.125000  0.062500  0.125000      4.000000
  0.000000  0.125000  0.125000      2.000000
  0.062500  0.125000  0.125000      4.000000
  0.125000  0.125000  0.125000      4.000000
  0.187500  0.125000  0.125000      4.000000
  0.250000  0.125000  0.125000      4.000000
  0.312500  0.125000  0.125000      4.000000
  0.375000  0.125000  0.125000      4.000000
  0.437500  0.125000  0.125000      4.000000
  0.500000  0.125000  0.125000      4.000000
 -0.437500  0.125000  0.125000      4.000000
 -0.375000  0.125000  0.125000      4.000000
 -0.312500  0.125000  0.125000      4.000000
 -0.250000  0.125000  0.125000      4.000000
 -0.187500  0.125000  0.125000      4.000000
  0.000000  0.187500  0.125000      2.000000
  0.062500  0.187500  0.125000      4.000000
  0.125000  0.187500  0.125000      4.000000
  0.187500  0.187500  0.125000      4.000000
  0.250000  0.187500  0.125000      4.000000
  0.312500  0.187500  0.125000      4.000000
  0.375000  0.187500  0.125000      4.000000
  0.437500  0.187500  0.125000      4.000000
  0.500000  0.187500  0.125000      4.000000
 -0.437500  0.187500  0.125000      4.000000
 -0.375000  0.187500  0.125000      4.000000
 -0.312500  0.187500  0.125000      4.000000
 -0.250000  0.187500  0.125000      4.000000
  0.000000  0.250000  0.125000      2.000000
  0.062500  0.250000  0.125000      4.000000
  0.125000  0.250000  0.125000      4.000000
  0.187500  0.250000  0.125000      4.000000
  0.250000  0.250000  0.125000      4.000000
  0.312500  0.250000  0.125000      4.000000
  0.375000  0.250000  0.125000      4.000000
  0.437500  0.250000  0.125000      4.000000
  0.500000  0.250000  0.125000      4.000000
 -0.437500  0.250000  0.125000      4.000000
 -0.375000  0.250000  0.125000      4.000000
 -0.312500  0.250000  0.125000      4.000000
  0.000000  0.312500  0.125000      2.000000
  0.062500  0.312500  0.125000      4.000000
  0.125000  0.312500  0.125000      4.000000
  0.187500  0.312500  0.125000      4.000000
  0.250000  0.312500  0.125000      4.000000
  0.312500  0.312500  0.125000      4.000000
  0.375000  0.312500  0.125000      4.000000
  0.437500  0.312500  0.125000      4.000000
  0.500000  0.312500  0.125000      4.000000
 -0.437500  0.312500  0.125000      4.000000
 -0.375000  0.312500  0.125000      4.000000
  0.000000  0.375000  0.125000      2.000000
  0.062500  0.375000  0.125000      4.000000
  0.125000  0.375000  0.125000      4.000000
  0.187500  0.375000  0.125000      4.000000
  0.250000  0.375000  0.125000      4.000000
  0.312500  0.375000  0.125000      4.000000
  0.375000  0.375000  0.125000      4.000000
  0.437500  0.375000  0.125000      4.000000
  0.500000  0.375000  0.125000      4.000000
 -0.437500  0.375000  0.125000      4.000000
  0.000000  0.437500  0.125000      2.000000
  0.062500  0.437500  0.125000      4.000000
  0.125000  0.437500  0.125000      4.000000
  0.187500  0.437500  0.125000      4.000000
  0.250000  0.437500  0.125000      4.000000
  0.312500  0.437500  0.125000      4.000000
  0.375000  0.437500  0.125000      4.000000
  0.437500  0.437500  0.125000      4.000000
  0.500000  0.437500  0.125000      4.000000
  0.000000  0.500000  0.125000      2.000000
  0.062500  0.500000  0.125000      4.000000
  0.125000  0.500000  0.125000      4.000000
  0.187500  0.500000  0.125000      4.000000
  0.250000  0.500000  0.125000      4.000000
  0.312500  0.500000  0.125000      4.000000
  0.375000  0.500000  0.125000      4.000000
  0.437500  0.500000  0.125000      4.000000
  0.000000 -0.437500  0.125000      2.000000
  0.062500 -0.437500  0.125000      4.000000
  0.125000 -0.437500  0.125000      4.000000
  0.187500 -0.437500  0.125000      4.000000
  0.250000 -0.437500  0.125000      4.000000
  0.312500 -0.437500  0.125000      4.000000
  0.375000 -0.437500  0.125000      4.000000
  0.000000 -0.375000  0.125000      2.000000
  0.062500 -0.375000  0.125000      4.000000
  0.125000 -0.375000  0.125000      4.000000
  0.187500 -0.375000  0.125000      4.000000
  0.250000 -0.375000  0.125000      4.000000
  0.312500 -0.375000  0.125000      4.000000
  0.000000 -0.312500  0.125000      2.000000
  0.062500 -0.312500  0.125000      4.000000
  0.125000 -0.312500  0.125000      4.000000
  0.187500 -0.312500  0.125000      4.000000
  0.250000 -0.312500  0.125000      4.000000
  0.000000 -0.250000  0.125000      2.000000
  0.062500 -0.250000  0.125000      4.000000
  0.125000 -0.250000  0.125000      4.000000
  0.187500 -0.250000  0.125000      4.000000
  0.000000 -0.187500  0.125000      2.000000
  0.062500 -0.187500  0.125000      4.000000
  0.125000 -0.187500  0.125000      4.000000
  0.000000 -0.125000  0.125000      2.000000
  0.062500 -0.125000  0.125000      4.000000
  0.000000 -0.062500  0.125000      2.000000
  0.000000  0.000000  0.187500      2.000000
  0.062500 -0.000000  0.187500      4.000000
  0.125000  0.000000  0.187500      4.000000
  0.187500  0.000000  0.187500      4.000000
  0.250000 -0.000000  0.187500      4.000000
  0.312500 -0.000000  0.187500      4.000000
  0.375000 -0.000000  0.187500      4.000000
  0.437500 -0.000000  0.187500      4.000000
  0.500000 -0.000000  0.187500      4.000000
 -0.437500  0.000000  0.187500      4.000000
 -0.375000 -0.000000  0.187500      4.000000
 -0.312500  0.000000  0.187500      4.000000
 -0.250000  0.000000  0.187500      4.000000
 -0.187500  0.000000  0.187500      4.000000
 -0.125000  0.000000  0.187500      4.000000
 -0.062500  0.000000  0.187500      4.000000
  0.000000  0.062500  0.187500      2.000000
  0.062500  0.062500  0.187500      4.000000
  0.125000  0.062500  0.187500      4.000000
  0.187500  0.062500  0.187500      4.000000
  0.250000  0.062500  0.187500      4.000000
  0.312500  0.062500  0.187500      4.000000
  0.375000  0.062500  0.187500      4.000000
  0.437500  0.062500  0.187500      4.000000
  0.500000  0.062500  0.187500      4.000000
 -0.437500  0.062500  0.187500      4.000000
 -0.375000  0.062500  0.187500      4.000000
 -0.312500  0.062500  0.187500      4.000000
 -0.250000  0.062500  0.187500      4.000000
 -0.187500  0.062500  0.187500      4.000000
 -0.125000  0.062500  0.187500      4.000000
  0.000000  0.125000  0.187500      2.000000
  0.062500  0.125000  0.187500      4.000000
  0.125000  0.125000  0.187500      4.000000
  0.187500  0.125000  0.187500      4.000000
  0.250000  0.125000  0.187500      4.000000
  0.312500  0.125000  0.187500      4.000000
  0.375000  0.125000  0.187500      4.000000
  0.437500  0.125000  0.187500      4.000000
  0.500000  0.125000  0.187500      4.000000
 -0.437500  0.125000  0.187500      4.000000
 -0.375000  0.125000  0.187500      4.000000
 -0.312500  0.125000  0.187500      4.000000
 -0.250000  0.125000  0.187500      4.000000
 -0.187500  0.125000  0.187500      4.000000
  0.000000  0.187500  0.187500      2.000000
  0.062500  0.187500  0.187500      4.000000
  0.125000  0.187500  0.187500      4.000000
  0.187500  0.187500  0.187500      4.000000
  0.250000  0.187500  0.187500      4.000000
  0.312500  0.187500  0.187500      4.000000
  0.375000  0.187500  0.187500      4.000000
  0.437500  0.187500  0.187500      4.000000
  0.500000  0.187500  0.187500      4.000000
 -0.437500  0.187500  0.187500      4.000000
 -0.375000  0.187500  0.187500      4.000000
 -0.312500  0.187500  0.187500      4.000000
 -0.250000  0.187500  0.187500      4.000000
  0.000000  0.250000  0.187500      2.000000
  0.062500  0.250000  0.187500      4.000000
  0.125000  0.250000  0.187500      4.000000
  0.187500  0.250000  0.187500      4.000000
  0.250000  0.250000  0.187500      4.000000
  0.312500  0.250000  0.187500      4.000000
  0.375000  0.250000  0.187500      4.000000
  0.437500  0.250000  0.187500      4.000000
  0.500000  0.250000  0.187500      4.000000
 -0.437500  0.250000  0.187500      4.000000
 -0.375000  0.250000  0.187500      4.000000
 -0.312500  0.250000  0.187500      4.000000
  0.000000  0.312500  0.187500      2.000000
  0.062500  0.312500  0.187500      4.000000
  0.125000  0.312500  0.187500      4.000000
  0.187500  0.312500  0.187500      4.000000
  0.250000  0.312500  0.187500      4.000000
  0.312500  0.312500  0.187500      4.000000
  0.375000  0.312500  0.187500      4.000000
  0.437500  0.312500  0.187500      4.000000
  0.500000  0.312500  0.187500      4.000000
 -0.437500  0.312500  0.187500      4.000000
 -0.375000  0.312500  0.187500      4.000000
  0.000000  0.375000  0.187500      2.000000
  0.062500  0.375000  0.187500      4.000000
  0.125000  0.375000  0.187500      4.000000
  0.187500  0.375000  0.187500      4.000000
  0.250000  0.375000  0.187500      4.000000
  0.312500  0.375000  0.187500      4.000000
  0.375000  0.375000  0.187500      4.000000
  0.437500  0.375000  0.187500      4.000000
  0.500000  0.375000  0.187500      4.000000
 -0.437500  0.375000  0.187500      4.000000
  0.000000  0.437500  0.187500      2.000000
  0.062500  0.437500  0.187500      4.000000
  0.125000  0.437500  0.187500      4.000000
  0.187500  0.437500  0.187500      4.000000
  0.250000  0.437500  0.187500      4.000000
  0.312500  0.437500  0.187500      4.000000
  0.375000  0.437500  0.187500      4.000000
  0.437500  0.437500  0.187500      4.000000
  0.500000  0.437500  0.187500      4.000000
  0.000000  0.500000  0.187500      2.000000
  0.062500  0.500000  0.187500      4.000000
  0.125000  0.500000  0.187500      4.000000
  0.187500  0.500000  0.187500      4.000000
  0.250000  0.500000  0.187500      4.000000
  0.312500  0.500000  0.187500      4.000000
  0.375000  0.500000  0.187500      4.000000
  0.437500  0.500000  0.187500      4.000000
  0.000000 -0.437500  0.187500      2.000000
  0.062500 -0.437500  0.187500      4.000000
  0.125000 -0.437500  0.187500      4.000000
  0.187500 -0.437500  0.187500      4.000000
  0.250000 -0.437500  0.187500      4.000000
  0.312500 -0.437500  0.187500      4.000000
  0.375000 -0.437500  0.187500      4.000000
  0.000000 -0.375000  0.187500      2.000000
  0.062500 -0.375000  0.187500      4.000000
  0.125000 -0.375000  0.187500      4.000000
  0.187500 -0.375000  0.187500      4.000000
  0.250000 -0.375000  0.187500      4.000000
  0.312500 -0.375000  0.187500      4.000000
  0.000000 -0.312500  0.187500      2.000000
  0.062500 -0.312500  0.187500      4.000000
  0.125000 -0.312500  0.187500      4.000000
  0.187500 -0.312500  0.187500      4.000000
  0.250000 -0.312500  0.187500      4.000000
  0.000000 -0.250000  0.187500      2.000000
  0.062500 -0.250000  0.187500      4.000000
  0.125000 -0.250000  0.187500      4.000000
  0.187500 -0.250000  0.187500      4.000000
  0.000000 -0.187500  0.187500      2.000000
  0.062500 -0.187500  0.187500      4.000000
  0.125000 -0.187500  0.187500      4.000000
  0.000000 -0.125000  0.187500      2.000000
  0.062500 -0.125000  0.187500      4.000000
  0.000000 -0.062500  0.187500      2.000000
  0.000000  0.000000  0.250000      2.000000
  0.062500 -0.000000  0.250000      4.000000
  0.125000 -0.000000  0.250000      4.000000
  0.187500 -0.000000  0.250000      4.000000
  0.250000 -0.000000  0.250000      4.000000
  0.312500 -0.000000  0.250000      4.000000
  0.375000 -0.000000  0.250000      4.000000
  0.437500 -0.000000  0.250000      4.000000
  0.500000 -0.000000  0.250000      4.000000
 -0.437500  0.000000  0.250000      4.000000
 -0.375000  0.000000  0.250000      4.000000
 -0.312500  0.000000  0.250000      4.000000
 -0.250000  0.000000  0.250000      4.000000
 -0.187500  0.000000  0.250000      4.000000
 -0.125000  0.000000  0.250000      4.000000
 -0.062500  0.000000  0.250000      4.000000
  0.000000  0.062500  0.250000      2.000000
  0.062500  0.062500  0.250000      4.000000
  0.125000  0.062500  0.250000      4.000000
  0.187500  0.062500  0.250000      4.000000
  0.250000  0.062500  0.250000      4.000000
  0.312500  0.062500  0.250000      4.000000
  0.375000  0.062500  0.250000      4.000000
  0.437500  0.062500  0.250000      4.000000
  0.500000  0.062500  0.250000      4.000000
 -0.437500  0.062500  0.250000      4.000000
 -0.375000  0.062500  0.250000      4.000000
 -0.312500  0.062500  0.250000      4.000000
 -0.250000  0.062500  0.250000      4.000000
 -0.187500  0.062500  0.250000      4.000000
 -0.125000  0.062500  0.250000      4.000000
  0.000000  0.125000  0.250000      2.000000
  0.062500  0.125000  0.250000      4.000000
  0.125000  0.125000  0.250000      4.000000
  0.187500  0.125000  0.250000      4.000000
  0.250000  0.125000  0.250000      4.000000
  0.312500  0.125000  0.250000      4.000000
  0.375000  0.125000  0.250000      4.000000
  0.437500  0.125000  0.250000      4.000000
  0.500000  0.125000  0.250000      4.000000
 -0.437500  0.125000  0.250000      4.000000
 -0.375000  0.125000  0.250000      4.000000
 -0.312500  0.125000  0.250000      4.000000
 -0.250000  0.125000  0.250000      4.000000
 -0.187500  0.125000  0.250000      4.000000
  0.000000  0.187500  0.250000      2.000000
  0.062500  0.187500  0.250000      4.000000
  0.125000  0.187500  0.250000      4.000000
  0.187500  0.187500  0.250000      4.000000
  0.250000  0.187500  0.250000      4.000000
  0.312500  0.187500  0.250000      4.000000
  0.375000  0.187500  0.250000      4.000000
  0.437500  0.187500  0.250000      4.000000
  0.500000  0.187500  0.250000      4.000000
 -0.437500  0.187500  0.250000      4.000000
 -0.375000  0.187500  0.250000      4.000000
 -0.312500  0.187500  0.250000      4.000000
 -0.250000  0.187500  0.250000      4.000000
  0.000000  0.250000  0.250000      2.000000
  0.062500  0.250000  0.250000      4.000000
  0.125000  0.250000  0.250000      4.000000
  0.187500  0.250000  0.250000      4.000000
  0.250000  0.250000  0.250000      4.000000
  0.312500  0.250000  0.250000      4.000000
  0.375000  0.250000  0.250000      4.000000
  0.437500  0.250000  0.250000      4.000000
  0.500000  0.250000  0.250000      4.000000
 -0.437500  0.250000  0.250000      4.000000
 -0.375000  0.250000  0.250000      4.000000
 -0.312500  0.250000  0.250000      4.000000
  0.000000  0.312500  0.250000      2.000000
  0.062500  0.312500  0.250000      4.000000
  0.125000  0.312500  0.250000      4.000000
  0.187500  0.312500  0.250000      4.000000
  0.250000  0.312500  0.250000      4.000000
  0.312500  0.312500  0.250000      4.000000
  0.375000  0.312500  0.250000      4.000000
  0.437500  0.312500  0.250000      4.000000
  0.500000  0.312500  0.250000      4.000000
 -0.437500  0.312500  0.250000      4.000000
 -0.375000  0.312500  0.250000      4.000000
  0.000000  0.375000  0.250000      2.000000
  0.062500  0.375000  0.250000      4.000000
  0.125000  0.375000  0.250000      4.000000
  0.187500  0.375000  0.250000      4.000000
  0.250000  0.375000  0.250000      4.000000
  0.312500  0.375000  0.250000      4.000000
  0.375000  0.375000  0.250000      4.000000
  0.437500  0.375000  0.250000      4.000000
  0.500000  0.375000  0.250000      4.000000
 -0.437500  0.375000  0.250000      4.000000
  0.000000  0.437500  0.250000      2.000000
  0.062500  0.437500  0.250000      4.000000
  0.125000  0.437500  0.250000      4.000000
  0.187500  0.437500  0.250000      4.000000
  0.250000  0.437500  0.250000      4.000000
  0.312500  0.437500  0.250000      4.000000
  0.375000  0.437500  0.250000      4.000000
  0.437500  0.437500  0.250000      4.000000
  0.500000  0.437500  0.250000      4.000000
  0.000000  0.500000  0.250000      2.000000
  0.062500  0.500000  0.250000      4.000000
  0.125000  0.500000  0.250000      4.000000
  0.187500  0.500000  0.250000      4.000000
  0.250000  0.500000  0.250000      4.000000
  0.312500  0.500000  0.250000      4.000000
  0.375000  0.500000  0.250000      4.000000
  0.437500  0.500000  0.250000      4.000000
  0.000000 -0.437500  0.250000      2.000000
  0.062500 -0.437500  0.250000      4.000000
  0.125000 -0.437500  0.250000      4.000000
  0.187500 -0.437500  0.250000      4.000000
  0.250000 -0.437500  0.250000      4.000000
  0.312500 -0.437500  0.250000      4.000000
  0.375000 -0.437500  0.250000      4.000000
  0.000000 -0.375000  0.250000      2.000000
  0.062500 -0.375000  0.250000      4.000000
  0.125000 -0.375000  0.250000      4.000000
  0.187500 -0.375000  0.250000      4.000000
  0.250000 -0.375000  0.250000      4.000000
  0.312500 -0.375000  0.250000      4.000000
  0.000000 -0.312500  0.250000      2.000000
  0.062500 -0.312500  0.250000      4.000000
  0.125000 -0.312500  0.250000      4.000000
  0.187500 -0.312500  0.250000      4.000000
  0.250000 -0.312500  0.250000      4.000000
  0.000000 -0.250000  0.250000      2.000000
  0.062500 -0.250000  0.250000      4.000000
  0.125000 -0.250000  0.250000      4.000000
  0.187500 -0.250000  0.250000      4.000000
  0.000000 -0.187500  0.250000      2.000000
  0.062500 -0.187500  0.250000      4.000000
  0.125000 -0.187500  0.250000      4.000000
  0.000000 -0.125000  0.250000      2.000000
  0.062500 -0.125000  0.250000      4.000000
  0.000000 -0.062500  0.250000      2.000000
  0.000000  0.000000  0.312500      2.000000
  0.062500  0.000000  0.312500      4.000000
  0.125000 -0.000000  0.312500      4.000000
  0.187500  0.000000  0.312500      4.000000
  0.250000  0.000000  0.312500      4.000000
  0.312500 -0.000000  0.312500      4.000000
  0.375000 -0.000000  0.312500      4.000000
  0.437500 -0.000000  0.312500      4.000000
  0.500000 -0.000000  0.312500      4.000000
 -0.437500  0.000000  0.312500      4.000000
 -0.375000  0.000000  0.312500      4.000000
 -0.312500  0.000000  0.312500      4.000000
 -0.250000  0.000000  0.312500      4.000000
 -0.187500  0.000000  0.312500      4.000000
 -0.125000  0.000000  0.312500      4.000000
 -0.062500  0.000000  0.312500      4.000000
  0.000000  0.062500  0.312500      2.000000
  0.062500  0.062500  0.312500      4.000000
  0.125000  0.062500  0.312500      4.000000
  0.187500  0.062500  0.312500      4.000000
  0.250000  0.062500  0.312500      4.000000
  0.312500  0.062500  0.312500      4.000000
  0.375000  0.062500  0.312500      4.000000
  0.437500  0.062500  0.312500      4.000000
  0.500000  0.062500  0.312500      4.000000
 -0.437500  0.062500  0.312500      4.000000
 -0.375000  0.062500  0.312500      4.000000
 -0.312500  0.062500  0.312500      4.000000
 -0.250000  0.062500  0.312500      4.000000
 -0.187500  0.062500  0.312500      4.000000
 -0.125000  0.062500  0.312500      4.000000
  0.000000  0.125000  0.312500      2.000000
  0.062500  0.125000  0.312500      4.000000
  0.125000  0.125000  0.312500      4.000000
  0.187500  0.125000  0.312500      4.000000
  0.250000  0.125000  0.312500      4.000000
  0.312500  0.125000  0.312500      4.000000
  0.375000  0.125000  0.312500      4.000000
  0.437500  0.125000  0.312500      4.000000
  0.500000  0.125000  0.312500      4.000000
 -0.437500  0.125000  0.312500      4.000000
 -0.375000  0.125000  0.312500      4.000000
 -0.312500  0.125000  0.312500      4.000000
 -0.250000  0.125000  0.312500      4.000000
 -0.187500  0.125000  0.312500      4.000000
  0.000000  0.187500  0.312500      2.000000
  0.062500  0.187500  0.312500      4.000000
  0.125000  0.187500  0.312500      4.000000
  0.187500  0.187500  0.312500      4.000000
  0.250000  0.187500  0.312500      4.000000
  0.312500  0.187500  0.312500      4.000000
  0.375000  0.187500  0.312500      4.000000
  0.437500  0.187500  0.312500      4.000000
  0.500000  0.187500  0.312500      4.000000
 -0.437500  0.187500  0.312500      4.000000
 -0.375000  0.187500  0.312500      4.000000
 -0.312500  0.187500  0.312500      4.000000
 -0.250000  0.187500  0.312500      4.000000
  0.000000  0.250000  0.312500      2.000000
  0.062500  0.250000  0.312500      4.000000
  0.125000  0.250000  0.312500      4.000000
  0.187500  0.250000  0.312500      4.000000
  0.250000  0.250000  0.312500      4.000000
  0.312500  0.250000  0.312500      4.000000
  0.375000  0.250000  0.312500      4.000000
  0.437500  0.250000  0.312500      4.000000
  0.500000  0.250000  0.312500      4.000000
 -0.437500  0.250000  0.312500      4.000000
 -0.375000  0.250000  0.312500      4.000000
 -0.312500  0.250000  0.312500      4.000000
  0.000000  0.312500  0.312500      2.000000
  0.062500  0.312500  0.312500      4.000000
  0.125000  0.312500  0.312500      4.000000
  0.187500  0.312500  0.312500      4.000000
  0.250000  0.312500  0.312500      4.000000
  0.312500  0.312500  0.312500      4.000000
  0.375000  0.312500  0.312500      4.000000
  0.437500  0.312500  0.312500      4.000000
  0.500000  0.312500  0.312500      4.000000
 -0.437500  0.312500  0.312500      4.000000
 -0.375000  0.312500  0.312500      4.000000
  0.000000  0.375000  0.312500      2.000000
  0.062500  0.375000  0.312500      4.000000
  0.125000  0.375000  0.312500      4.000000
  0.187500  0.375000  0.312500      4.000000
  0.250000  0.375000  0.312500      4.000000
  0.312500  0.375000  0.312500      4.000000
  0.375000  0.375000  0.312500      4.000000
  0.437500  0.375000  0.312500      4.000000
  0.500000  0.375000  0.312500      4.000000
 -0.437500  0.375000  0.312500      4.000000
  0.000000  0.437500  0.312500      2.000000
  0.062500  0.437500  0.312500      4.000000
  0.125000  0.437500  0.312500      4.000000
  0.187500  0.437500  0.312500      4.000000
  0.250000  0.437500  0.312500      4.000000
  0.312500  0.437500  0.312500      4.000000
  0.375000  0.437500  0.312500      4.000000
  0.437500  0.437500  0.312500      4.000000
  0.500000  0.437500  0.312500      4.000000
  0.000000  0.500000  0.312500      2.000000
  0.062500  0.500000  0.312500      4.000000
  0.125000  0.500000  0.312500      4.000000
  0.187500  0.500000  0.312500      4.000000
  0.250000  0.500000  0.312500      4.000000
  0.312500  0.500000  0.312500      4.000000
  0.375000  0.500000  0.312500      4.000000
  0.437500  0.500000  0.312500      4.000000
  0.000000 -0.437500  0.312500      2.000000
  0.062500 -0.437500  0.312500      4.000000
  0.125000 -0.437500  0.312500      4.000000
  0.187500 -0.437500  0.312500      4.000000
  0.250000 -0.437500  0.312500      4.000000
  0.312500 -0.437500  0.312500      4.000000
  0.375000 -0.437500  0.312500      4.000000
  0.000000 -0.375000  0.312500      2.000000
  0.062500 -0.375000  0.312500      4.000000
  0.125000 -0.375000  0.312500      4.000000
  0.187500 -0.375000  0.312500      4.000000
  0.250000 -0.375000  0.312500      4.000000
  0.312500 -0.375000  0.312500      4.000000
  0.000000 -0.312500  0.312500      2.000000
  0.062500 -0.312500  0.312500      4.000000
  0.125000 -0.312500  0.312500      4.000000
  0.187500 -0.312500  0.312500      4.000000
  0.250000 -0.312500  0.312500      4.000000
  0.000000 -0.250000  0.312500      2.000000
  0.062500 -0.250000  0.312500      4.000000
  0.125000 -0.250000  0.312500      4.000000
  0.187500 -0.250000  0.312500      4.000000
  0.000000 -0.187500  0.312500      2.000000
  0.062500 -0.187500  0.312500      4.000000
  0.125000 -0.187500  0.312500      4.000000
  0.000000 -0.125000  0.312500      2.000000
  0.062500 -0.125000  0.312500      4.000000
  0.000000 -0.062500  0.312500      2.000000
  0.000000  0.000000  0.375000      2.000000
  0.062500 -0.000000  0.375000      4.000000
  0.125000 -0.000000  0.375000      4.000000
  0.187500  0.000000  0.375000      4.000000
  0.250000  0.000000  0.375000      4.000000
  0.312500  0.000000  0.375000      4.000000
  0.375000  0.000000  0.375000      4.000000
  0.437500 -0.000000  0.375000      4.000000
  0.500000 -0.000000  0.375000      4.000000
 -0.437500  0.000000  0.375000      4.000000
 -0.375000  0.000000  0.375000      4.000000
 -0.312500  0.000000  0.375000      4.000000
 -0.250000  0.000000  0.375000      4.000000
 -0.187500  0.000000  0.375000      4.000000
 -0.125000  0.000000  0.375000      4.000000
 -0.062500  0.000000  0.375000      4.000000
  0.000000  0.062500  0.375000      2.000000
  0.062500  0.062500  0.375000      4.000000
  0.125000  0.062500  0.375000      4.000000
  0.187500  0.062500  0.375000      4.000000
  0.250000  0.062500  0.375000      4.000000
  0.312500  0.062500  0.375000      4.000000
  0.375000  0.062500  0.375000      4.000000
  0.437500  0.062500  0.375000      4.000000
  0.500000  0.062500  0.375000      4.000000
 -0.437500  0.062500  0.375000      4.000000
 -0.375000  0.062500  0.375000      4.000000
 -0.312500  0.062500  0.375000      4.000000
 -0.250000  0.062500  0.375000      4.000000
 -0.187500  0.062500  0.375000      4.000000
 -0.125000  0.062500  0.375000      4.000000
  0.000000  0.125000  0.375000      2.000000
  0.062500  0.125000  0.375000      4.000000
  0.125000  0.125000  0.375000      4.000000
  0.187500  0.125000  0.375000      4.000000
  0.250000  0.125000  0.375000      4.000000
  0.312500  0.125000  0.375000      4.000000
  0.375000  0.125000  0.375000      4.000000
  0.437500  0.125000  0.375000      4.000000
  0.500000  0.125000  0.375000      4.000000
 -0.437500  0.125000  0.375000      4.000000
 -0.375000  0.125000  0.375000      4.000000
 -0.312500  0.125000  0.375000      4.000000
 -0.250000  0.125000  0.375000      4.000000
 -0.187500  0.125000  0.375000      4.000000
  0.000000  0.187500  0.375000      2.000000
  0.062500  0.187500  0.375000      4.000000
  0.125000  0.187500  0.375000      4.000000
  0.187500  0.187500  0.375000      4.000000
  0.250000  0.187500  0.375000      4.000000
  0.312500  0.187500  0.375000      4.000000
  0.375000  0.187500  0.375000      4.000000
  0.437500  0.187500  0.375000      4.000000
  0.500000  0.187500  0.375000      4.000000
 -0.437500  0.187500  0.375000      4.000000
 -0.375000  0.187500  0.375000      4.000000
 -0.312500  0.187500  0.375000      4.000000
 -0.250000  0.187500  0.375000      4.000000
  0.000000  0.250000  0.375000      2.000000
  0.062500  0.250000  0.375000      4.000000
  0.125000  0.250000  0.375000      4.000000
  0.187500  0.250000  0.375000      4.000000
  0.250000  0.250000  0.375000      4.000000
  0.312500  0.250000  0.375000      4.000000
  0.375000  0.250000  0.375000      4.000000
  0.437500  0.250000  0.375000      4.000000
  0.500000  0.250000  0.375000      4.000000
 -0.437500  0.250000  0.375000      4.000000
 -0.375000  0.250000  0.375000      4.000000
 -0.312500  0.250000  0.375000      4.000000
  0.000000  0.312500  0.375000      2.000000
  0.062500  0.312500  0.375000      4.000000
  0.125000  0.312500  0.375000      4.000000
  0.187500  0.312500  0.375000      4.000000
  0.250000  0.312500  0.375000      4.000000
  0.312500  0.312500  0.375000      4.000000
  0.375000  0.312500  0.375000      4.000000
  0.437500  0.312500  0.375000      4.000000
  0.500000  0.312500  0.375000      4.000000
 -0.437500  0.312500  0.375000      4.000000
 -0.375000  0.312500  0.375000      4.000000
  0.000000  0.375000  0.375000      2.000000
  0.062500  0.375000  0.375000      4.000000
  0.125000  0.375000  0.375000      4.000000
  0.187500  0.375000  0.375000      4.000000
  0.250000  0.375000  0.375000      4.000000
  0.312500  0.375000  0.375000      4.000000
  0.375000  0.375000  0.375000      4.000000
  0.437500  0.375000  0.375000      4.000000
  0.500000  0.375000  0.375000      4.000000
 -0.437500  0.375000  0.375000      4.000000
  0.000000  0.437500  0.375000      2.000000
  0.062500  0.437500  0.375000      4.000000
  0.125000  0.437500  0.375000      4.000000
  0.187500  0.437500  0.375000      4.000000
  0.250000  0.437500  0.375000      4.000000
  0.312500  0.437500  0.375000      4.000000
  0.375000  0.437500  0.375000      4.000000
  0.437500  0.437500  0.375000      4.000000
  0.500000  0.437500  0.375000      4.000000
  0.000000  0.500000  0.375000      2.000000
  0.062500  0.500000  0.375000      4.000000
  0.125000  0.500000  0.375000      4.000000
  0.187500  0.500000  0.375000      4.000000
  0.250000  0.500000  0.375000      4.000000
  0.312500  0.500000  0.375000      4.000000
  0.375000  0.500000  0.375000      4.000000
  0.437500  0.500000  0.375000      4.000000
  0.000000 -0.437500  0.375000      2.000000
  0.062500 -0.437500  0.375000      4.000000
  0.125000 -0.437500  0.375000      4.000000
  0.187500 -0.437500  0.375000      4.000000
  0.250000 -0.437500  0.375000      4.000000
  0.312500 -0.437500  0.375000      4.000000
  0.375000 -0.437500  0.375000      4.000000
  0.000000 -0.375000  0.375000      2.000000
  0.062500 -0.375000  0.375000      4.000000
  0.125000 -0.375000  0.375000      4.000000
  0.187500 -0.375000  0.375000      4.000000
  0.250000 -0.375000  0.375000      4.000000
  0.312500 -0.375000  0.375000      4.000000
  0.000000 -0.312500  0.375000      2.000000
  0.062500 -0.312500  0.375000      4.000000
  0.125000 -0.312500  0.375000      4.000000
  0.187500 -0.312500  0.375000      4.000000
  0.250000 -0.312500  0.375000      4.000000
  0.000000 -0.250000  0.375000      2.000000
  0.062500 -0.250000  0.375000      4.000000
  0.125000 -0.250000  0.375000      4.000000
  0.187500 -0.250000  0.375000      4.000000
  0.000000 -0.187500  0.375000      2.000000
  0.062500 -0.187500  0.375000      4.000000
  0.125000 -0.187500  0.375000      4.000000
  0.000000 -0.125000  0.375000      2.000000
  0.062500 -0.125000  0.375000      4.000000
  0.000000 -0.062500  0.375000      2.000000
  0.000000  0.000000  0.437500      2.000000
  0.062500 -0.000000  0.437500      4.000000
  0.125000 -0.000000  0.437500      4.000000
  0.187500 -0.000000  0.437500      4.000000
  0.250000 -0.000000  0.437500      4.000000
  0.312500 -0.000000  0.437500      4.000000
  0.375000 -0.000000  0.437500      4.000000
  0.437500 -0.000000  0.437500      4.000000
  0.500000 -0.000000  0.437500      4.000000
 -0.437500  0.000000  0.437500      4.000000
 -0.375000  0.000000  0.437500      4.000000
 -0.312500 -0.000000  0.437500      4.000000
 -0.250000  0.000000  0.437500      4.000000
 -0.187500  0.000000  0.437500      4.000000
 -0.125000  0.000000  0.437500      4.000000
 -0.062500  0.000000  0.437500      4.000000
  0.000000  0.062500  0.437500      2.000000
  0.062500  0.062500  0.437500      4.000000
  0.125000  0.062500  0.437500      4.000000
  0.187500  0.062500  0.437500      4.000000
  0.250000  0.062500  0.437500      4.000000
  0.312500  0.062500  0.437500      4.000000
  0.375000  0.062500  0.437500      4.000000
  0.437500  0.062500  0.437500      4.000000
  0.500000  0.062500  0.437500      4.000000
 -0.437500  0.062500  0.437500      4.000000
 -0.375000  0.062500  0.437500      4.000000
 -0.312500  0.062500  0.437500      4.000000
 -0.250000  0.062500  0.437500      4.000000
 -0.187500  0.062500  0.437500      4.000000
 -0.125000  0.062500  0.437500      4.000000
  0.000000  0.125000  0.437500      2.000000
  0.062500  0.125000  0.437500      4.000000
  0.125000  0.125000  0.437500      4.000000
  0.187500  0.125000  0.437500      4.000000
  0.250000  0.125000  0.437500      4.000000
  0.312500  0.125000  0.437500      4.000000
  0.375000  0.125000  0.437500      4.000000
  0.437500  0.125000  0.437500      4.000000
  0.500000  0.125000  0.437500      4.000000
 -0.437500  0.125000  0.437500      4.000000
 -0.375000  0.125000  0.437500      4.000000
 -0.312500  0.125000  0.437500      4.000000
 -0.250000  0.125000  0.437500      4.000000
 -0.187500  0.125000  0.437500      4.000000
  0.000000  0.187500  0.437500      2.000000
  0.062500  0.187500  0.437500      4.000000
  0.125000  0.187500  0.437500      4.000000
  0.187500  0.187500  0.437500      4.000000
  0.250000  0.187500  0.437500      4.000000
  0.312500  0.187500  0.437500      4.000000
  0.375000  0.187500  0.437500      4.000000
  0.437500  0.187500  0.437500      4.000000
  0.500000  0.187500  0.437500      4.000000
 -0.437500  0.187500  0.437500      4.000000
 -0.375000  0.187500  0.437500      4.000000
 -0.312500  0.187500  0.437500      4.000000
 -0.250000  0.187500  0.437500      4.000000
  0.000000  0.250000  0.437500      2.000000
  0.062500  0.250000  0.437500      4.000000
  0.125000  0.250000  0.437500      4.000000
  0.187500  0.250000  0.437500      4.000000
  0.250000  0.250000  0.437500      4.000000
  0.312500  0.250000  0.437500      4.000000
  0.375000  0.250000  0.437500      4.000000
  0.437500  0.250000  0.437500      4.000000
  0.500000  0.250000  0.437500      4.000000
 -0.437500  0.250000  0.437500      4.000000
 -0.375000  0.250000  0.437500      4.000000
 -0.312500  0.250000  0.437500      4.000000
  0.000000  0.312500  0.437500      2.000000
  0.062500  0.312500  0.437500      4.000000
  0.125000  0.312500  0.437500      4.000000
  0.187500  0.312500  0.437500      4.000000
  0.250000  0.312500  0.437500      4.000000
  0.312500  0.312500  0.437500      4.000000
  0.375000  0.312500  0.437500      4.000000
  0.437500  0.312500  0.437500      4.000000
  0.500000  0.312500  0.437500      4.000000
 -0.437500  0.312500  0.437500      4.000000
 -0.375000  0.312500  0.437500      4.000000
  0.000000  0.375000  0.437500      2.000000
  0.062500  0.375000  0.437500      4.000000
  0.125000  0.375000  0.437500      4.000000
  0.187500  0.375000  0.437500      4.000000
  0.250000  0.375000  0.437500      4.000000
  0.312500  0.375000  0.437500      4.000000
  0.375000  0.375000  0.437500      4.000000
  0.437500  0.375000  0.437500      4.000000
  0.500000  0.375000  0.437500      4.000000
 -0.437500  0.375000  0.437500      4.000000
  0.000000  0.437500  0.437500      2.000000
  0.062500  0.437500  0.437500      4.000000
  0.125000  0.437500  0.437500      4.000000
  0.187500  0.437500  0.437500      4.000000
  0.250000  0.437500  0.437500      4.000000
  0.312500  0.437500  0.437500      4.000000
  0.375000  0.437500  0.437500      4.000000
  0.437500  0.437500  0.437500      4.000000
  0.500000  0.437500  0.437500      4.000000
  0.000000  0.500000  0.437500      2.000000
  0.062500  0.500000  0.437500      4.000000
  0.125000  0.500000  0.437500      4.000000
  0.187500  0.500000  0.437500      4.000000
  0.250000  0.500000  0.437500      4.000000
  0.312500  0.500000  0.437500      4.000000
  0.375000  0.500000  0.437500      4.000000
  0.437500  0.500000  0.437500      4.000000
  0.000000 -0.437500  0.437500      2.000000
  0.062500 -0.437500  0.437500      4.000000
  0.125000 -0.437500  0.437500      4.000000
  0.187500 -0.437500  0.437500      4.000000
  0.250000 -0.437500  0.437500      4.000000
  0.312500 -0.437500  0.437500      4.000000
  0.375000 -0.437500  0.437500      4.000000
  0.000000 -0.375000  0.437500      2.000000
  0.062500 -0.375000  0.437500      4.000000
  0.125000 -0.375000  0.437500      4.000000
  0.187500 -0.375000  0.437500      4.000000
  0.250000 -0.375000  0.437500      4.000000
  0.312500 -0.375000  0.437500      4.000000
  0.000000 -0.312500  0.437500      2.000000
  0.062500 -0.312500  0.437500      4.000000
  0.125000 -0.312500  0.437500      4.000000
  0.187500 -0.312500  0.437500      4.000000
  0.250000 -0.312500  0.437500      4.000000
  0.000000 -0.250000  0.437500      2.000000
  0.062500 -0.250000  0.437500      4.000000
  0.125000 -0.250000  0.437500      4.000000
  0.187500 -0.250000  0.437500      4.000000
  0.000000 -0.187500  0.437500      2.000000
  0.062500 -0.187500  0.437500      4.000000
  0.125000 -0.187500  0.437500      4.000000
  0.000000 -0.125000  0.437500      2.000000
  0.062500 -0.125000  0.437500      4.000000
  0.000000 -0.062500  0.437500      2.000000
  0.000000  0.000000  0.500000      1.000000
  0.062500  0.000000  0.500000      4.000000
  0.125000 -0.000000  0.500000      4.000000
  0.187500  0.000000  0.500000      4.000000
  0.250000 -0.000000  0.500000      4.000000
  0.312500 -0.000000  0.500000      4.000000
  0.375000 -0.000000  0.500000      4.000000
  0.437500 -0.000000  0.500000      4.000000
  0.500000 -0.000000  0.500000      2.000000
  0.000000  0.062500  0.500000      2.000000
  0.062500  0.062500  0.500000      4.000000
  0.125000  0.062500  0.500000      4.000000
  0.187500  0.062500  0.500000      4.000000
  0.250000  0.062500  0.500000      4.000000
  0.312500  0.062500  0.500000      4.000000
  0.375000  0.062500  0.500000      4.000000
  0.437500  0.062500  0.500000      4.000000
  0.500000  0.062500  0.500000      4.000000
 -0.437500  0.062500  0.500000      4.000000
 -0.375000  0.062500  0.500000      4.000000
 -0.312500  0.062500  0.500000      4.000000
 -0.250000  0.062500  0.500000      4.000000
 -0.187500  0.062500  0.500000      4.000000
 -0.125000  0.062500  0.500000      2.000000
  0.000000  0.125000  0.500000      2.000000
  0.062500  0.125000  0.500000      4.000000
  0.125000  0.125000  0.500000      4.000000
  0.187500  0.125000  0.500000      4.000000
  0.250000  0.125000  0.500000      4.000000
  0.312500  0.125000  0.500000      4.000000
  0.375000  0.125000  0.500000      4.000000
  0.437500  0.125000  0.500000      4.000000
  0.500000  0.125000  0.500000      4.000000
 -0.437500  0.125000  0.500000      4.000000
 -0.375000  0.125000  0.500000      4.000000
 -0.312500  0.125000  0.500000      4.000000
 -0.250000  0.125000  0.500000      2.000000
  0.000000  0.187500  0.500000      2.000000
  0.062500  0.187500  0.500000      4.000000
  0.125000  0.187500  0.500000      4.000000
  0.187500  0.187500  0.500000      4.000000
  0.250000  0.187500  0.500000      4.000000
  0.312500  0.187500  0.500000      4.000000
  0.375000  0.187500  0.500000      4.000000
  0.437500  0.187500  0.500000      4.000000
  0.500000  0.187500  0.500000      4.000000
 -0.437500  0.187500  0.500000      4.000000
 -0.375000  0.187500  0.500000      2.000000
  0.000000  0.250000  0.500000      2.000000
  0.062500  0.250000  0.500000      4.000000
  0.125000  0.250000  0.500000      4.000000
  0.187500  0.250000  0.500000      4.000000
  0.250000  0.250000  0.500000      4.000000
  0.312500  0.250000  0.500000      4.000000
  0.375000  0.250000  0.500000      4.000000
  0.437500  0.250000  0.500000      4.000000
  0.500000  0.250000  0.500000      2.000000
  0.000000  0.312500  0.500000      2.000000
  0.062500  0.312500  0.500000      4.000000
  0.125000  0.312500  0.500000      4.000000
  0.187500  0.312500  0.500000      4.000000
  0.250000  0.312500  0.500000      4.000000
  0.312500  0.312500  0.500000      4.000000
  0.375000  0.312500  0.500000      2.000000
  0.000000  0.375000  0.500000      2.000000
  0.062500  0.375000  0.500000      4.000000
  0.125000  0.375000  0.500000      4.000000
  0.187500  0.375000  0.500000      4.000000
  0.250000  0.375000  0.500000      2.000000
  0.000000  0.437500  0.500000      2.000000
  0.062500  0.437500  0.500000      4.000000
  0.125000  0.437500  0.500000      2.000000
  0.000000  0.500000  0.500000      1.000000
 
 Following cartesian coordinates:
            Coordinates               Weight
  0.000000  0.000000  0.000000      1.000000
  0.020607  0.011909  0.000380      4.000000
  0.041214  0.023818  0.000760      4.000000
  0.061821  0.035727  0.001140      4.000000
  0.082428  0.047636  0.001520      4.000000
  0.103036  0.059545  0.001900      4.000000
  0.123643  0.071454  0.002280      4.000000
  0.144250  0.083362  0.002661      4.000000
  0.164857  0.095271  0.003041      2.000000
  0.000000  0.023818  0.000760      2.000000
  0.020607  0.035727  0.001140      4.000000
  0.041214  0.047636  0.001520      4.000000
  0.061821  0.059545  0.001900      4.000000
  0.082428  0.071454  0.002280      4.000000
  0.103036  0.083362  0.002661      4.000000
  0.123643  0.095271  0.003041      4.000000
  0.144250  0.107180  0.003421      4.000000
  0.164857  0.119089  0.003801      4.000000
 -0.144250 -0.059545 -0.001900      4.000000
 -0.123643 -0.047636 -0.001520      4.000000
 -0.103036 -0.035727 -0.001140      4.000000
 -0.082428 -0.023818 -0.000760      4.000000
 -0.061821 -0.011909 -0.000380      4.000000
 -0.041214  0.000000  0.000000      2.000000
  0.000000  0.047636  0.001520      2.000000
  0.020607  0.059545  0.001900      4.000000
  0.041214  0.071454  0.002280      4.000000
  0.061821  0.083362  0.002661      4.000000
  0.082428  0.095271  0.003041      4.000000
  0.103036  0.107180  0.003421      4.000000
  0.123643  0.119089  0.003801      4.000000
  0.144250  0.130998  0.004181      4.000000
  0.164857  0.142907  0.004561      4.000000
 -0.144250 -0.035727 -0.001140      4.000000
 -0.123643 -0.023818 -0.000760      4.000000
 -0.103036 -0.011909 -0.000380      4.000000
 -0.082428  0.000000  0.000000      2.000000
  0.000000  0.071454  0.002280      2.000000
  0.020607  0.083362  0.002661      4.000000
  0.041214  0.095271  0.003041      4.000000
  0.061821  0.107180  0.003421      4.000000
  0.082428  0.119089  0.003801      4.000000
  0.103036  0.130998  0.004181      4.000000
  0.123643  0.142907  0.004561      4.000000
  0.144250  0.154816  0.004941      4.000000
  0.164857  0.166725  0.005321      4.000000
 -0.144250 -0.011909 -0.000380      4.000000
 -0.123643  0.000000  0.000000      2.000000
  0.000000  0.095271  0.003041      2.000000
  0.020607  0.107180  0.003421      4.000000
  0.041214  0.119089  0.003801      4.000000
  0.061821  0.130998  0.004181      4.000000
  0.082428  0.142907  0.004561      4.000000
  0.103036  0.154816  0.004941      4.000000
  0.123643  0.166725  0.005321      4.000000
  0.144250  0.178634  0.005701      4.000000
  0.164857  0.190543  0.006081      2.000000
  0.000000  0.119089  0.003801      2.000000
  0.020607  0.130998  0.004181      4.000000
  0.041214  0.142907  0.004561      4.000000
  0.061821  0.154816  0.004941      4.000000
  0.082428  0.166725  0.005321      4.000000
  0.103036  0.178634  0.005701      4.000000
  0.123643  0.190543  0.006081      2.000000
  0.000000  0.142907  0.004561      2.000000
  0.020607  0.154816  0.004941      4.000000
  0.041214  0.166725  0.005321      4.000000
  0.061821  0.178634  0.005701      4.000000
  0.082428  0.190543  0.006081      2.000000
  0.000000  0.166725  0.005321      2.000000
  0.020607  0.178634  0.005701      4.000000
  0.041214  0.190543  0.006081      2.000000
  0.000000  0.190543  0.006081      1.000000
  0.000000  0.000619  0.020632      2.000000
  0.020607  0.012528  0.021012      4.000000
  0.041214  0.024437  0.021392      4.000000
  0.061821  0.036346  0.021772      4.000000
  0.082428  0.048255  0.022152      4.000000
  0.103036  0.060164  0.022533      4.000000
  0.123643  0.072072  0.022913      4.000000
  0.144250  0.083981  0.023293      4.000000
  0.164857  0.095890  0.023673      4.000000
 -0.144250 -0.082743  0.017972      4.000000
 -0.123643 -0.070835  0.018352      4.000000
 -0.103036 -0.058926  0.018732      4.000000
 -0.082428 -0.047017  0.019112      4.000000
 -0.061821 -0.035108  0.019492      4.000000
 -0.041214 -0.023199  0.019872      4.000000
 -0.020607 -0.011290  0.020252      4.000000
  0.000000  0.024437  0.021392      2.000000
  0.020607  0.036346  0.021772      4.000000
  0.041214  0.048255  0.022152      4.000000
  0.061821  0.060164  0.022533      4.000000
  0.082428  0.072072  0.022913      4.000000
  0.103036  0.083981  0.023293      4.000000
  0.123643  0.095890  0.023673      4.000000
  0.144250  0.107799  0.024053      4.000000
  0.164857  0.119708  0.024433      4.000000
 -0.144250 -0.058926  0.018732      4.000000
 -0.123643 -0.047017  0.019112      4.000000
 -0.103036 -0.035108  0.019492      4.000000
 -0.082428 -0.023199  0.019872      4.000000
 -0.061821 -0.011290  0.020252      4.000000
 -0.041214  0.000619  0.020632      4.000000
  0.000000  0.048255  0.022152      2.000000
  0.020607  0.060164  0.022533      4.000000
  0.041214  0.072072  0.022913      4.000000
  0.061821  0.083981  0.023293      4.000000
  0.082428  0.095890  0.023673      4.000000
  0.103036  0.107799  0.024053      4.000000
  0.123643  0.119708  0.024433      4.000000
  0.144250  0.131617  0.024813      4.000000
  0.164857  0.143526  0.025193      4.000000
 -0.144250 -0.035108  0.019492      4.000000
 -0.123643 -0.023199  0.019872      4.000000
 -0.103036 -0.011290  0.020252      4.000000
 -0.082428  0.000619  0.020632      4.000000
 -0.061821  0.012528  0.021012      4.000000
  0.000000  0.072072  0.022913      2.000000
  0.020607  0.083981  0.023293      4.000000
  0.041214  0.095890  0.023673      4.000000
  0.061821  0.107799  0.024053      4.000000
  0.082428  0.119708  0.024433      4.000000
  0.103036  0.131617  0.024813      4.000000
  0.123643  0.143526  0.025193      4.000000
  0.144250  0.155435  0.025573      4.000000
  0.164857  0.167344  0.025953      4.000000
 -0.144250 -0.011290  0.020252      4.000000
 -0.123643  0.000619  0.020632      4.000000
 -0.103036  0.012528  0.021012      4.000000
 -0.082428  0.024437  0.021392      4.000000
  0.000000  0.095890  0.023673      2.000000
  0.020607  0.107799  0.024053      4.000000
  0.041214  0.119708  0.024433      4.000000
  0.061821  0.131617  0.024813      4.000000
  0.082428  0.143526  0.025193      4.000000
  0.103036  0.155435  0.025573      4.000000
  0.123643  0.167344  0.025953      4.000000
  0.144250  0.179253  0.026333      4.000000
  0.164857  0.191162  0.026713      4.000000
 -0.144250  0.012528  0.021012      4.000000
 -0.123643  0.024437  0.021392      4.000000
 -0.103036  0.036346  0.021772      4.000000
  0.000000  0.119708  0.024433      2.000000
  0.020607  0.131617  0.024813      4.000000
  0.041214  0.143526  0.025193      4.000000
  0.061821  0.155435  0.025573      4.000000
  0.082428  0.167344  0.025953      4.000000
  0.103036  0.179253  0.026333      4.000000
  0.123643  0.191162  0.026713      4.000000
  0.144250  0.203071  0.027093      4.000000
  0.164857  0.214979  0.027473      4.000000
 -0.144250  0.036346  0.021772      4.000000
 -0.123643  0.048255  0.022152      4.000000
  0.000000  0.143526  0.025193      2.000000
  0.020607  0.155435  0.025573      4.000000
  0.041214  0.167344  0.025953      4.000000
  0.061821  0.179253  0.026333      4.000000
  0.082428  0.191162  0.026713      4.000000
  0.103036  0.203071  0.027093      4.000000
  0.123643  0.214979  0.027473      4.000000
  0.144250  0.226888  0.027854      4.000000
  0.164857  0.238797  0.028234      4.000000
 -0.144250  0.060164  0.022533      4.000000
  0.000000  0.167344  0.025953      2.000000
  0.020607  0.179253  0.026333      4.000000
  0.041214  0.191162  0.026713      4.000000
  0.061821  0.203071  0.027093      4.000000
  0.082428  0.214979  0.027473      4.000000
  0.103036  0.226888  0.027854      4.000000
  0.123643  0.238797  0.028234      4.000000
  0.144250  0.250706  0.028614      4.000000
  0.164857  0.262615  0.028994      4.000000
  0.000000  0.191162  0.026713      2.000000
  0.020607  0.203071  0.027093      4.000000
  0.041214  0.214979  0.027473      4.000000
  0.061821  0.226888  0.027854      4.000000
  0.082428  0.238797  0.028234      4.000000
  0.103036  0.250706  0.028614      4.000000
  0.123643  0.262615  0.028994      4.000000
  0.144250  0.274524  0.029374      4.000000
  0.000000 -0.166106  0.015311      2.000000
  0.020607 -0.154197  0.015691      4.000000
  0.041214 -0.142288  0.016071      4.000000
  0.061821 -0.130379  0.016451      4.000000
  0.082428 -0.118470  0.016831      4.000000
  0.103036 -0.106561  0.017212      4.000000
  0.123643 -0.094652  0.017592      4.000000
  0.000000 -0.142288  0.016071      2.000000
  0.020607 -0.130379  0.016451      4.000000
  0.041214 -0.118470  0.016831      4.000000
  0.061821 -0.106561  0.017212      4.000000
  0.082428 -0.094652  0.017592      4.000000
  0.103036 -0.082743  0.017972      4.000000
  0.000000 -0.118470  0.016831      2.000000
  0.020607 -0.106561  0.017212      4.000000
  0.041214 -0.094652  0.017592      4.000000
  0.061821 -0.082743  0.017972      4.000000
  0.082428 -0.070835  0.018352      4.000000
  0.000000 -0.094652  0.017592      2.000000
  0.020607 -0.082743  0.017972      4.000000
  0.041214 -0.070835  0.018352      4.000000
  0.061821 -0.058926  0.018732      4.000000
  0.000000 -0.070835  0.018352      2.000000
  0.020607 -0.058926  0.018732      4.000000
  0.041214 -0.047017  0.019112      4.000000
  0.000000 -0.047017  0.019112      2.000000
  0.020607 -0.035108  0.019492      4.000000
  0.000000 -0.023199  0.019872      2.000000
  0.000000  0.001238  0.041264      2.000000
  0.020607  0.013147  0.041644      4.000000
  0.041214  0.025056  0.042025      4.000000
  0.061821  0.036965  0.042405      4.000000
  0.082428  0.048874  0.042785      4.000000
  0.103036  0.060783  0.043165      4.000000
  0.123643  0.072691  0.043545      4.000000
  0.144250  0.084600  0.043925      4.000000
  0.164857  0.096509  0.044305      4.000000
 -0.144250 -0.082124  0.038604      4.000000
 -0.123643 -0.070216  0.038984      4.000000
 -0.103036 -0.058307  0.039364      4.000000
 -0.082428 -0.046398  0.039744      4.000000
 -0.061821 -0.034489  0.040124      4.000000
 -0.041214 -0.022580  0.040504      4.000000
 -0.020607 -0.010671  0.040884      4.000000
  0.000000  0.025056  0.042025      2.000000
  0.020607  0.036965  0.042405      4.000000
  0.041214  0.048874  0.042785      4.000000
  0.061821  0.060783  0.043165      4.000000
  0.082428  0.072691  0.043545      4.000000
  0.103036  0.084600  0.043925      4.000000
  0.123643  0.096509  0.044305      4.000000
  0.144250  0.108418  0.044685      4.000000
  0.164857  0.120327  0.045065      4.000000
 -0.144250 -0.058307  0.039364      4.000000
 -0.123643 -0.046398  0.039744      4.000000
 -0.103036 -0.034489  0.040124      4.000000
 -0.082428 -0.022580  0.040504      4.000000
 -0.061821 -0.010671  0.040884      4.000000
 -0.041214  0.001238  0.041264      4.000000
  0.000000  0.048874  0.042785      2.000000
  0.020607  0.060783  0.043165      4.000000
  0.041214  0.072691  0.043545      4.000000
  0.061821  0.084600  0.043925      4.000000
  0.082428  0.096509  0.044305      4.000000
  0.103036  0.108418  0.044685      4.000000
  0.123643  0.120327  0.045065      4.000000
  0.144250  0.132236  0.045445      4.000000
  0.164857  0.144145  0.045825      4.000000
 -0.144250 -0.034489  0.040124      4.000000
 -0.123643 -0.022580  0.040504      4.000000
 -0.103036 -0.010671  0.040884      4.000000
 -0.082428  0.001238  0.041264      4.000000
 -0.061821  0.013147  0.041644      4.000000
  0.000000  0.072691  0.043545      2.000000
  0.020607  0.084600  0.043925      4.000000
  0.041214  0.096509  0.044305      4.000000
  0.061821  0.108418  0.044685      4.000000
  0.082428  0.120327  0.045065      4.000000
  0.103036  0.132236  0.045445      4.000000
  0.123643  0.144145  0.045825      4.000000
  0.144250  0.156054  0.046205      4.000000
  0.164857  0.167963  0.046585      4.000000
 -0.144250 -0.010671  0.040884      4.000000
 -0.123643  0.001238  0.041264      4.000000
 -0.103036  0.013147  0.041644      4.000000
 -0.082428  0.025056  0.042025      4.000000
  0.000000  0.096509  0.044305      2.000000
  0.020607  0.108418  0.044685      4.000000
  0.041214  0.120327  0.045065      4.000000
  0.061821  0.132236  0.045445      4.000000
  0.082428  0.144145  0.045825      4.000000
  0.103036  0.156054  0.046205      4.000000
  0.123643  0.167963  0.046585      4.000000
  0.144250  0.179872  0.046965      4.000000
  0.164857  0.191781  0.047346      4.000000
 -0.144250  0.013147  0.041644      4.000000
 -0.123643  0.025056  0.042025      4.000000
 -0.103036  0.036965  0.042405      4.000000
  0.000000  0.120327  0.045065      2.000000
  0.020607  0.132236  0.045445      4.000000
  0.041214  0.144145  0.045825      4.000000
  0.061821  0.156054  0.046205      4.000000
  0.082428  0.167963  0.046585      4.000000
  0.103036  0.179872  0.046965      4.000000
  0.123643  0.191781  0.047346      4.000000
  0.144250  0.203690  0.047726      4.000000
  0.164857  0.215598  0.048106      4.000000
 -0.144250  0.036965  0.042405      4.000000
 -0.123643  0.048874  0.042785      4.000000
  0.000000  0.144145  0.045825      2.000000
  0.020607  0.156054  0.046205      4.000000
  0.041214  0.167963  0.046585      4.000000
  0.061821  0.179872  0.046965      4.000000
  0.082428  0.191781  0.047346      4.000000
  0.103036  0.203690  0.047726      4.000000
  0.123643  0.215598  0.048106      4.000000
  0.144250  0.227507  0.048486      4.000000
  0.164857  0.239416  0.048866      4.000000
 -0.144250  0.060783  0.043165      4.000000
  0.000000  0.167963  0.046585      2.000000
  0.020607  0.179872  0.046965      4.000000
  0.041214  0.191781  0.047346      4.000000
  0.061821  0.203690  0.047726      4.000000
  0.082428  0.215598  0.048106      4.000000
  0.103036  0.227507  0.048486      4.000000
  0.123643  0.239416  0.048866      4.000000
  0.144250  0.251325  0.049246      4.000000
  0.164857  0.263234  0.049626      4.000000
  0.000000  0.191781  0.047346      2.000000
  0.020607  0.203690  0.047726      4.000000
  0.041214  0.215598  0.048106      4.000000
  0.061821  0.227507  0.048486      4.000000
  0.082428  0.239416  0.048866      4.000000
  0.103036  0.251325  0.049246      4.000000
  0.123643  0.263234  0.049626      4.000000
  0.144250  0.275143  0.050006      4.000000
  0.000000 -0.165487  0.035943      2.000000
  0.020607 -0.153578  0.036323      4.000000
  0.041214 -0.141669  0.036704      4.000000
  0.061821 -0.129760  0.037084      4.000000
  0.082428 -0.117851  0.037464      4.000000
  0.103036 -0.105942  0.037844      4.000000
  0.123643 -0.094033  0.038224      4.000000
  0.000000 -0.141669  0.036704      2.000000
  0.020607 -0.129760  0.037084      4.000000
  0.041214 -0.117851  0.037464      4.000000
  0.061821 -0.105942  0.037844      4.000000
  0.082428 -0.094033  0.038224      4.000000
  0.103036 -0.082124  0.038604      4.000000
  0.000000 -0.117851  0.037464      2.000000
  0.020607 -0.105942  0.037844      4.000000
  0.041214 -0.094033  0.038224      4.000000
  0.061821 -0.082124  0.038604      4.000000
  0.082428 -0.070216  0.038984      4.000000
  0.000000 -0.094033  0.038224      2.000000
  0.020607 -0.082124  0.038604      4.000000
  0.041214 -0.070216  0.038984      4.000000
  0.061821 -0.058307  0.039364      4.000000
  0.000000 -0.070216  0.038984      2.000000
  0.020607 -0.058307  0.039364      4.000000
  0.041214 -0.046398  0.039744      4.000000
  0.000000 -0.046398  0.039744      2.000000
  0.020607 -0.034489  0.040124      4.000000
  0.000000 -0.022580  0.040504      2.000000
  0.000000  0.001857  0.061897      2.000000
  0.020607  0.013766  0.062277      4.000000
  0.041214  0.025675  0.062657      4.000000
  0.061821  0.037584  0.063037      4.000000
  0.082428  0.049493  0.063417      4.000000
  0.103036  0.061401  0.063797      4.000000
  0.123643  0.073310  0.064177      4.000000
  0.144250  0.085219  0.064557      4.000000
  0.164857  0.097128  0.064937      4.000000
 -0.144250 -0.081506  0.059236      4.000000
 -0.123643 -0.069597  0.059616      4.000000
 -0.103036 -0.057688  0.059996      4.000000
 -0.082428 -0.045779  0.060376      4.000000
 -0.061821 -0.033870  0.060756      4.000000
 -0.041214 -0.021961  0.061136      4.000000
 -0.020607 -0.010052  0.061517      4.000000
  0.000000  0.025675  0.062657      2.000000
  0.020607  0.037584  0.063037      4.000000
  0.041214  0.049493  0.063417      4.000000
  0.061821  0.061401  0.063797      4.000000
  0.082428  0.073310  0.064177      4.000000
  0.103036  0.085219  0.064557      4.000000
  0.123643  0.097128  0.064937      4.000000
  0.144250  0.109037  0.065317      4.000000
  0.164857  0.120946  0.065697      4.000000
 -0.144250 -0.057688  0.059996      4.000000
 -0.123643 -0.045779  0.060376      4.000000
 -0.103036 -0.033870  0.060756      4.000000
 -0.082428 -0.021961  0.061136      4.000000
 -0.061821 -0.010052  0.061517      4.000000
 -0.041214  0.001857  0.061897      4.000000
  0.000000  0.049493  0.063417      2.000000
  0.020607  0.061401  0.063797      4.000000
  0.041214  0.073310  0.064177      4.000000
  0.061821  0.085219  0.064557      4.000000
  0.082428  0.097128  0.064937      4.000000
  0.103036  0.109037  0.065317      4.000000
  0.123643  0.120946  0.065697      4.000000
  0.144250  0.132855  0.066077      4.000000
  0.164857  0.144764  0.066457      4.000000
 -0.144250 -0.033870  0.060756      4.000000
 -0.123643 -0.021961  0.061136      4.000000
 -0.103036 -0.010052  0.061517      4.000000
 -0.082428  0.001857  0.061897      4.000000
 -0.061821  0.013766  0.062277      4.000000
  0.000000  0.073310  0.064177      2.000000
  0.020607  0.085219  0.064557      4.000000
  0.041214  0.097128  0.064937      4.000000
  0.061821  0.109037  0.065317      4.000000
  0.082428  0.120946  0.065697      4.000000
  0.103036  0.132855  0.066077      4.000000
  0.123643  0.144764  0.066457      4.000000
  0.144250  0.156673  0.066838      4.000000
  0.164857  0.168582  0.067218      4.000000
 -0.144250 -0.010052  0.061517      4.000000
 -0.123643  0.001857  0.061897      4.000000
 -0.103036  0.013766  0.062277      4.000000
 -0.082428  0.025675  0.062657      4.000000
  0.000000  0.097128  0.064937      2.000000
  0.020607  0.109037  0.065317      4.000000
  0.041214  0.120946  0.065697      4.000000
  0.061821  0.132855  0.066077      4.000000
  0.082428  0.144764  0.066457      4.000000
  0.103036  0.156673  0.066838      4.000000
  0.123643  0.168582  0.067218      4.000000
  0.144250  0.180491  0.067598      4.000000
  0.164857  0.192400  0.067978      4.000000
[...]
     11      15.4378      0.00000
     12      16.5710      0.00000

 k-point  1078 :       0.2500    0.2500    0.5000
  band No.  band energies     occupation 
      1      -3.0290      2.00000
      2      -0.4936      2.00000
      3       1.5173      2.00000
      4       2.7223      2.00000
      5       3.9182      2.00000
      6       9.8548      0.00000
      7      10.1493      0.00000
      8      10.9903      0.00000
      9      12.1178      0.00000
     10      13.2530      0.00000
     11      15.5820      0.00000
     12      17.2200      0.00000

 k-point  1079 :       0.3125    0.2500    0.5000
  band No.  band energies     occupation 
      1      -2.6474      2.00000
      2      -1.0702      2.00000
      3       1.3616      2.00000
      4       3.2081      2.00000
      5       3.6793      2.00000
      6       9.8585      0.00000
      7      10.6368      0.00000
      8      11.2806      0.00000
      9      12.0473      0.00000
     10      12.6870      0.00000
     11      15.0177      0.00000
     12      16.5485      0.00000

 k-point  1080 :       0.3750    0.2500    0.5000
  band No.  band energies     occupation 
      1      -2.4221      2.00000
      2      -1.3614      2.00000
      3       1.3124      2.00000
      4       3.4488      2.00000
      5       3.5386      2.00000
      6       9.8489      0.00000
      7      10.8886      0.00000
      8      11.4515      0.00000
      9      11.9132      0.00000
     10      12.4159      0.00000
     11      14.8359      0.00000
     12      16.5573      0.00000

 k-point  1081 :       0.4375    0.2500    0.5000
  band No.  band energies     occupation 
      1      -2.6422      2.00000
      2      -1.0689      2.00000
      3       1.3742      2.00000
      4       3.1238      2.00000
      5       3.7535      2.00000
      6       9.8607      0.00000
      7      10.6058      0.00000
      8      11.3637      0.00000
      9      11.9541      0.00000
     10      12.7036      0.00000
     11      15.0191      0.00000
     12      16.5140      0.00000

 k-point  1082 :       0.5000    0.2500    0.5000
  band No.  band energies     occupation 
      1      -3.0211      2.00000
      2      -0.4877      2.00000
      3       1.5467      2.00000
      4       2.6382      2.00000
      5       3.9761      2.00000
      6       9.8474      0.00000
      7      10.1284      0.00000
      8      11.0445      0.00000
      9      12.0665      0.00000
     10      13.2216      0.00000
     11      15.5841      0.00000
     12      16.1315      0.00000

 k-point  1083 :       0.0000    0.3125    0.5000
  band No.  band energies     occupation 
      1      -3.7814      2.00000
      2       0.9827      2.00000
      3       1.3033      2.00000
      4       2.4593      2.00000
      5       4.7292      2.00000
      6       8.8923      0.00000
      7       9.8081      0.00000
      8      10.2323      0.00000
      9      11.1391      0.00000
     10      13.9877      0.00000
     11      14.8001      0.00000
     12      19.7172      0.00000

 k-point  1084 :       0.0625    0.3125    0.5000
  band No.  band energies     occupation 
      1      -3.6026      2.00000
      2       0.5549      2.00000
      3       1.6595      2.00000
      4       2.2035      2.00000
      5       4.4466      2.00000
      6       9.1950      0.00000
      7       9.8533      0.00000
      8      10.5456      0.00000
      9      11.5617      0.00000
     10      13.7691      0.00000
     11      14.5439      0.00000
     12      19.1517      0.00000

 k-point  1085 :       0.1250    0.3125    0.5000
  band No.  band energies     occupation 
      1      -3.3554      2.00000
      2       0.0434      2.00000
      3       1.8201      2.00000
      4       2.2182      2.00000
      5       4.1565      2.00000
      6       9.5864      0.00000
      7       9.8959      0.00000
      8      10.8165      0.00000
      9      11.9732      0.00000
     10      13.5966      0.00000
     11      14.5920      0.00000
     12      16.9582      0.00000

 k-point  1086 :       0.1875    0.3125    0.5000
  band No.  band energies     occupation 
      1      -3.0367      2.00000
      2      -0.5094      2.00000
      3       1.5636      2.00000
      4       2.7159      2.00000
      5       3.9011      2.00000
      6       9.8645      0.00000
      7      10.1033      0.00000
      8      11.0745      0.00000
      9      12.0970      0.00000
     10      13.2580      0.00000
     11      15.2965      0.00000
     12      15.8422      0.00000

 k-point  1087 :       0.2500    0.3125    0.5000
  band No.  band energies     occupation 
      1      -2.6476      2.00000
      2      -1.0766      2.00000
      3       1.3643      2.00000
      4       3.1802      2.00000
      5       3.7081      2.00000
      6       9.8557      0.00000
      7      10.6229      0.00000
      8      11.3291      0.00000
      9      11.9955      0.00000
     10      12.7302      0.00000
     11      15.0243      0.00000
     12      16.5555      0.00000

 k-point  1088 :       0.3125    0.3125    0.5000
  band No.  band energies     occupation 
      1      -2.2068      2.00000
      2      -1.6129      2.00000
      3       1.2629      2.00000
      4       3.4756      2.00000
      5       3.5918      2.00000
      6       9.8272      0.00000
      7      11.1696      0.00000
      8      11.4947      0.00000
      9      11.8757      0.00000
     10      12.1400      0.00000
     11      14.6345      0.00000
     12      18.1667      0.00000

 k-point  1089 :       0.3750    0.3125    0.5000
  band No.  band energies     occupation 
      1      -2.2045      2.00000
      2      -1.6110      2.00000
      3       1.2665      2.00000
      4       3.4190      2.00000
      5       3.6447      2.00000
      6       9.8291      0.00000
      7      11.1435      0.00000
      8      11.6646      0.00000
      9      11.6789      0.00000
     10      12.1773      0.00000
     11      14.6338      0.00000
     12      18.0750      0.00000

 k-point  1090 :       0.0000    0.3750    0.5000
  band No.  band energies     occupation 
      1      -3.4779      2.00000
      2       0.2315      2.00000
      3       1.9463      2.00000
      4       2.0944      2.00000
      5       4.2551      2.00000
      6       9.3727      0.00000
      7       9.8803      0.00000
      8      10.8911      0.00000
      9      11.7010      0.00000
     10      13.4230      0.00000
     11      14.1341      0.00000
     12      18.4114      0.00000

 k-point  1091 :       0.0625    0.3750    0.5000
  band No.  band energies     occupation 
      1      -3.2958      2.00000
      2      -0.1357      2.00000
      3       1.8963      2.00000
      4       2.3198      2.00000
      5       4.0365      2.00000
      6       9.6350      0.00000
      7       9.9060      0.00000
      8      11.1461      0.00000
      9      11.9774      0.00000
     10      13.2718      0.00000
     11      13.8821      0.00000
     12      17.5817      0.00000

 k-point  1092 :       0.1250    0.3750    0.5000
  band No.  band energies     occupation 
      1      -3.0538      2.00000
      2      -0.5355      2.00000
      3       1.6641      2.00000
      4       2.7331      2.00000
      5       3.8304      2.00000
      6       9.8901      0.00000
      7      10.0046      0.00000
      8      11.2944      0.00000
      9      12.0749      0.00000
     10      13.2389      0.00000
     11      14.1528      0.00000
     12      16.4456      0.00000

 k-point  1093 :       0.1875    0.3750    0.5000
  band No.  band energies     occupation 
      1      -2.7553      2.00000
      2      -0.9581      2.00000
      3       1.4532      2.00000
      4       3.1280      2.00000
      5       3.6701      2.00000
      6       9.8788      0.00000
      7      10.4137      0.00000
      8      11.4301      0.00000
      9      11.9523      0.00000
     10      12.9274      0.00000
     11      15.1939      0.00000
     12      15.4642      0.00000

 k-point  1094 :       0.2500    0.3750    0.5000
  band No.  band energies     occupation 
      1      -2.4229      2.00000
      2      -1.3714      2.00000
      3       1.3115      2.00000
      4       3.4012      2.00000
      5       3.5910      2.00000
      6       9.8438      0.00000
      7      10.8627      0.00000
      8      11.5890      0.00000
      9      11.7724      0.00000
     10      12.4898      0.00000
     11      14.8369      0.00000
     12      16.5672      0.00000

 k-point  1095 :       0.0000    0.4375    0.5000
  band No.  band energies     occupation 
      1      -3.2008      2.00000
      2      -0.3428      2.00000
      3       1.8741      2.00000
      4       2.5191      2.00000
      5       3.8853      2.00000
      6       9.7345      0.00000
      7       9.9208      0.00000
      8      11.5413      0.00000
      9      12.0340      0.00000
     10      12.8608      0.00000
     11      13.5414      0.00000
     12      17.8378      0.00000

 k-point  1096 :       0.0625    0.4375    0.5000
  band No.  band energies     occupation 
      1      -3.0704      2.00000
      2      -0.5583      2.00000
      3       1.7612      2.00000
      4       2.7663      2.00000
      5       3.7451      2.00000
      6       9.9003      0.00000
      7       9.9292      0.00000
      8      11.6706      0.00000
      9      12.0627      0.00000
     10      13.0260      0.00000
     11      13.3545      0.00000
     12      17.2121      0.00000

 k-point  1097 :       0.1250    0.4375    0.5000
  band No.  band energies     occupation 
      1      -2.9132      2.00000
      2      -0.7702      2.00000
      3       1.6022      2.00000
      4       2.9921      2.00000
      5       3.6631      2.00000
      6       9.9082      0.00000
      7      10.1438      0.00000
      8      11.5669      0.00000
      9      11.9709      0.00000
     10      13.1268      0.00000
     11      13.9829      0.00000
     12      16.2623      0.00000

 k-point  1098 :       0.0000    0.5000    0.5000
  band No.  band energies     occupation 
      1      -3.0771      2.00000
      2      -0.5671      2.00000
      3       1.8005      2.00000
      4       2.7855      2.00000
      5       3.7049      2.00000
      6       9.8716      0.00000
      7       9.9326      0.00000
      8      12.0231      0.00000
      9      12.1436      0.00000
     10      12.4334      0.00000
     11      13.2898      0.00000
     12      17.6294      0.00000


--------------------------------------------------------------------------------------------------------


 soft charge-density along one line, spin component           1
         0         1         2         3         4         5         6         7         8         9
 total charge-density along one line
 
 pseudopotential strength for first ion, spin component:           1
 -1.721  -0.000  -0.000   0.017  -0.000  -1.379  -0.000  -0.000
 -0.000  -1.777   0.010   0.000  -0.016  -0.000  -1.444   0.011
 -0.000   0.010  -1.771   0.000   0.000  -0.000   0.011  -1.437
  0.017   0.000   0.000  -1.777   0.000   0.020   0.000   0.000
 -0.000  -0.016   0.000   0.000  -1.722  -0.000  -0.020   0.000
 -1.379  -0.000  -0.000   0.020  -0.000  -0.853  -0.000  -0.000
 -0.000  -1.444   0.011   0.000  -0.020  -0.000  -0.926   0.014
 -0.000   0.011  -1.437   0.000   0.000  -0.000   0.014  -0.920
  0.020   0.000   0.000  -1.444   0.000   0.023   0.000   0.000
 -0.000  -0.020   0.000   0.000  -1.380  -0.000  -0.023   0.000
 -0.000  -0.007   0.009   0.000   0.000  -0.000  -0.008   0.009
  0.000   0.015  -0.014  -0.000  -0.000   0.000   0.018  -0.015
 -0.000   0.000  -0.000   0.000  -0.000  -0.000   0.000  -0.000
  0.000   0.000   0.000  -0.000   0.000   0.000   0.000   0.000
  0.000   0.000   0.000   0.000  -0.000   0.000   0.000   0.000
 total augmentation occupancy for first ion, spin component:           1
  6.422   0.000   0.000   0.514   0.000  -4.062   0.000   0.000  -0.334   0.000   0.000   0.000   0.000   0.000   0.000
  0.000   9.573   0.230   0.000  -0.511   0.000  -6.439  -0.162   0.000   0.335   0.452   0.023   0.000   0.000   0.000
  0.000   0.230   5.570   0.000   0.004   0.000  -0.162  -3.516   0.000  -0.001   0.307   0.043   0.000   0.000   0.000
  0.514   0.000   0.000   9.586   0.000  -0.337   0.000   0.000  -6.447   0.000   0.000   0.000   0.000   0.000   0.000
  0.000  -0.511   0.004   0.000   6.460   0.000   0.333  -0.001   0.000  -4.083  -0.003   0.000   0.000   0.000   0.000
 -4.062   0.000   0.000  -0.337   0.000   2.612   0.000   0.000   0.223   0.000   0.000   0.000   0.000   0.000   0.000
  0.000  -6.439  -0.162   0.000   0.333   0.000   4.389   0.117   0.000  -0.222  -0.308  -0.017   0.000   0.000   0.000
  0.000  -0.162  -3.516   0.000  -0.001   0.000   0.117   2.264   0.000  -0.000  -0.278  -0.035   0.000   0.000   0.000
 -0.334   0.000   0.000  -6.447   0.000   0.223   0.000   0.000   4.395   0.000   0.000   0.000   0.000   0.000   0.000
  0.000   0.335  -0.001   0.000  -4.083   0.000  -0.222  -0.000   0.000   2.622   0.001  -0.000   0.000   0.000   0.000
  0.000   0.452   0.307   0.000  -0.003   0.000  -0.308  -0.278   0.000   0.001   2.104   0.151   0.000   0.000   0.000
  0.000   0.023   0.043   0.000   0.000   0.000  -0.017  -0.035   0.000  -0.000   0.151   0.012   0.000   0.000   0.000
  0.000   0.000   0.000   0.000   0.000   0.000   0.000   0.000   0.000   0.000   0.000   0.000   0.501   0.056   0.000
  0.000   0.000   0.000   0.000   0.000   0.000   0.000   0.000   0.000   0.000   0.000   0.000   0.056   0.510   0.000
  0.000   0.000   0.000   0.000   0.000   0.000   0.000   0.000   0.000   0.000   0.000   0.000   0.000   0.000   0.499


------------------------ aborting loop because EDIFF is reached ----------------------------------------


    CHARGE:  cpu time    0.0940: real time    0.0936
    FORLOC:  cpu time    0.0000: real time    0.0002
    FORNL :  cpu time    0.1590: real time    0.1590
    STRESS:  cpu time    0.9739: real time    0.9751
    FORCOR:  cpu time    0.0040: real time    0.0033
    FORHAR:  cpu time    0.0000: real time    0.0007
    MIXING:  cpu time    0.0010: real time    0.0002
    OFIELD:  cpu time    0.0000: real time    0.0000

  FORCE on cell =-STRESS in cart. coord.  units (eV):
  Direction    XX          YY          ZZ          XY          YZ          ZX
  --------------------------------------------------------------------------------------
  Alpha Z    55.51560    55.51560    55.51560
  Ewald    -103.42542  -103.28569  -135.37870     0.00000     4.30575     0.00000
  Hartree     6.36070     6.33386    -3.33840    -0.00000     0.36407    -0.00000
  E(xc)     -36.83789   -36.84424   -37.04867     0.00000    -0.30935    -0.00000
  Local     -15.66903   -15.68164    24.28803    -0.00000    -3.94133     0.00000
  n-local    -4.85253    -4.83641    -5.34764    -0.24652     0.51938    -0.02496
  augment     6.22823     6.22676     5.89746     0.00000     0.03210    -0.00000
  Kinetic    94.08830    94.22845   100.65086    -0.76648     2.10952    -0.08605
  Fock        0.00000     0.00000     0.00000     0.00000     0.00000     0.00000
  -------------------------------------------------------------------------------------
  Total       1.40796     1.65668     5.23855     0.00000     3.08014     0.00000
  in kB      93.47831   109.99121   347.80046     0.00000   204.49798     0.00000
  external pressure =      183.76 kB  Pullay stress =        0.00 kB


 VOLUME and BASIS-vectors are now :
 -----------------------------------------------------------------------------
  energy-cutoff  :      600.00
  volume of cell :       24.13
      direct lattice vectors                 reciprocal lattice vectors
     3.032935232  0.000000000  0.000000000     0.329713602  0.190542671  0.006081149
    -1.516467616  2.626598959 -0.078797969     0.000000000  0.381085343  0.012162298
     0.000000000 -0.096770685  3.032148142     0.000000000  0.009903458  0.330115257

  length of vectors
     3.032935232  3.033958675  3.033691962     0.380860275  0.381279373  0.330263776


 FORCES acting on ions
    electron-ion (+dipol)            ewald-force                    non-local-force                 convergence-correction
 -----------------------------------------------------------------------------------------------
   -.184E-14 0.207E-14 0.136E-14   -.146E-14 -.158E-14 -.328E-14   0.217E-23 0.103E-24 0.000E+00   -.264E-14 0.475E-15 -.349E-13
   -.150E-08 -.714E-01 -.443E-02   -.848E-13 0.766E-01 0.929E-02   -.672E-17 -.464E-02 -.473E-02   0.211E-08 -.342E-03 -.215E-05
   0.150E-08 0.714E-01 0.443E-02   0.863E-13 -.766E-01 -.929E-02   -.108E-18 0.464E-02 0.473E-02   -.211E-08 0.342E-03 0.215E-05
 -----------------------------------------------------------------------------------------------
   -.181E-13 0.634E-13 0.126E-12   0.407E-16 0.153E-15 -.113E-15   -.683E-17 0.000E+00 0.000E+00   -.892E-15 0.407E-15 0.308E-13
 
 
 POSITION                                       TOTAL-FORCE (eV/Angst)
 -----------------------------------------------------------------------------------
      0.00000      0.00000     -0.00000        -0.000000      0.000000      0.000000
      0.00000      1.70377      1.46372         0.000000      0.000184      0.000129
      1.51647      0.82606      1.48963        -0.000000     -0.000184     -0.000129
 -----------------------------------------------------------------------------------
    total drift:                               -0.000000      0.000000      0.000000


--------------------------------------------------------------------------------------------------------



  FREE ENERGIE OF THE ION-ELECTRON SYSTEM (eV)
  ---------------------------------------------------
  free  energy   TOTEN  =       -24.05831012 eV

  energy  without entropy=      -24.05798682  energy(sigma->0) =      -24.05814847
 
 d Force = 0.8492322E-05[-0.208E-06, 0.172E-04]  d Energy = 0.8413886E-05 0.784E-07
 d Force =-0.4569452E-04[-0.817E-04,-0.972E-05]  d Ewald  =-0.4570760E-04 0.131E-07


--------------------------------------------------------------------------------------------------------


    POTLOK:  cpu time    0.0060: real time    0.0059


--------------------------------------------------------------------------------------------------------


 Quasi-Newton relaxation of ions (Broydens 2nd method)
  g(Force)  = 0.486E-08   g(Stress)= 0.000E+00

 retain information from N=  1 steps
 eigenvalues of (default step * inverse Hessian matrix)
  average eigenvalue of G=   0.6674
 eigenvalue spectrum of G is  0.6674


--------------------------------------------------------------------------------------------------------


  
 reached required accuracy - stopping structural energy minimisation
     LOOP+:  cpu time    7.8658: real time    7.8810
    4ORBIT:  cpu time    0.0000: real time    0.0000

 total amount of memory used by VASP MPI-rank0    70653. kBytes
=======================================================================

   base      :      30000. kBytes
   nonl-proj :      32682. kBytes
   fftplans  :        224. kBytes
   grid      :        359. kBytes
   one-center:         10. kBytes
   wavefun   :       7378. kBytes
 
  
  
 General timing and accounting informations for this job:
 ========================================================
  
                  Total CPU time used (sec):       62.628
                            User time (sec):       61.982
                          System time (sec):        0.647
                         Elapsed time (sec):       62.700
  
                   Maximum memory used (kb):      127164.
                   Average memory used (kb):           0.
  
                          Minor page faults:        18710
                          Major page faults:            0
                 Voluntary context switches:          357
