<?xml version="1.0" encoding="ISO-8859-1"?>
<modeling>
 <generator>
  <i name="program" type="string">vasp </i>
  <i name="version" type="string">5.4.4.18Apr17-6-g9f103f2a35  </i>
  <i name="subversion" type="string">(build Nov 22 2017 20:28:56) complex            parallel </i>
  <i name="platform" type="string">LinuxIFC </i>
  <i name="date" type="string">2019 09 11 </i>
  <i name="time" type="string">22:44:26 </i>
 </generator>
 <incar>
  <i type="int" name="ISTART">     0</i>
  <i type="string" name="PREC">accurate</i>
  <i type="int" name="IALGO">    48</i>
  <i type="string" name="ALGO"> Very Fast</i>
  <i type="int" name="NSIM">     4</i>
  <i type="int" name="IBRION">     1</i>
  <i name="EDIFF">      0.00000100</i>
  <i type="int" name="NSW">    50</i>
  <i type="int" name="ISIF">     2</i>
  <i type="int" name="ISYM">     2</i>
  <i name="ENCUT">    600.00000000</i>
  <i name="POTIM">      0.50000000</i>
  <i type="logical" name="LPLANE"> T  </i>
  <i type="int" name="ISMEAR">     0</i>
  <i name="SIGMA">      0.05000000</i>
  <i type="logical" name="LWAVE"> F  </i>
  <i type="logical" name="LCHARG"> F  </i>
  <v type="int" name="KPOINT_BSE">    -1     0     0     0</v>
 </incar>
 <structure name="primitive_cell" >
  <crystal>
   <varray name="basis" >
    <v>       3.03293523       0.00000000       0.00000000 </v>
    <v>      -1.51646762       2.62659896      -0.07879797 </v>
    <v>       0.00000000      -0.09677069       3.03214814 </v>
   </varray>
   <i name="volume">     24.13188831 </i>
   <varray name="rec_basis" >
    <v>       0.32971360       0.19054267       0.00608115 </v>
    <v>       0.00000000       0.38108534       0.01216230 </v>
    <v>       0.00000000       0.00990346       0.33011526 </v>
   </varray>
  </crystal>
  <varray name="positions" >
   <v>       0.00000000       0.00000000       0.00000000 </v>
   <v>       0.33333333      -0.33333333      -0.50000000 </v>
   <v>      -0.33333333       0.33333333      -0.50000000 </v>
  </varray>
 </structure>
 <varray name="primitive_index" >
  <v type="int" >        1 </v>
  <v type="int" >        2 </v>
  <v type="int" >        3 </v>
 </varray>
 <kpoints>
  <generation param="Gamma">
   <v type="int" name="divisions">      16       16       16 </v>
   <v name="usershift">      0.00000000       0.00000000       0.00000000 </v>
   <v name="genvec1">      0.06250000       0.00000000       0.00000000 </v>
   <v name="genvec2">      0.00000000       0.06250000       0.00000000 </v>
   <v name="genvec3">      0.00000000      -0.00000000       0.06250000 </v>
   <v name="shift">      0.00000000       0.00000000       0.00000000 </v>
  </generation>
  <varray name="kpointlist" >
   <v>       0.00000000       0.00000000       0.00000000 </v>
   <v>       0.06250000      -0.00000000       0.00000000 </v>
   <v>       0.12500000      -0.00000000       0.00000000 </v>
   <v>       0.18750000      -0.00000000       0.00000000 </v>
   <v>       0.25000000      -0.00000000       0.00000000 </v>
   <v>       0.31250000      -0.00000000       0.00000000 </v>
   <v>       0.37500000      -0.00000000       0.00000000 </v>
   <v>       0.43750000      -0.00000000      -0.00000000 </v>
   <v>       0.50000000      -0.00000000       0.00000000 </v>
   <v>       0.00000000       0.06250000       0.00000000 </v>
   <v>       0.06250000       0.06250000       0.00000000 </v>
   <v>       0.12500000       0.06250000       0.00000000 </v>
   <v>       0.18750000       0.06250000       0.00000000 </v>
   <v>       0.25000000       0.06250000       0.00000000 </v>
   <v>       0.31250000       0.06250000      -0.00000000 </v>
   <v>       0.37500000       0.06250000       0.00000000 </v>
   <v>       0.43750000       0.06250000      -0.00000000 </v>
   <v>       0.50000000       0.06250000       0.00000000 </v>
   <v>      -0.43750000       0.06250000       0.00000000 </v>
   <v>      -0.37500000       0.06250000       0.00000000 </v>
   <v>      -0.31250000       0.06250000       0.00000000 </v>
   <v>      -0.25000000       0.06250000       0.00000000 </v>
   <v>      -0.18750000       0.06250000       0.00000000 </v>
   <v>      -0.12500000       0.06250000       0.00000000 </v>
   <v>       0.00000000       0.12500000       0.00000000 </v>
   <v>       0.06250000       0.12500000       0.00000000 </v>
   <v>       0.12500000       0.12500000       0.00000000 </v>
   <v>       0.18750000       0.12500000      -0.00000000 </v>
   <v>       0.25000000       0.12500000       0.00000000 </v>
   <v>       0.31250000       0.12500000       0.00000000 </v>
   <v>       0.37500000       0.12500000       0.00000000 </v>
   <v>       0.43750000       0.12500000      -0.00000000 </v>
   <v>       0.50000000       0.12500000       0.00000000 </v>
   <v>      -0.43750000       0.12500000       0.00000000 </v>
   <v>      -0.37500000       0.12500000       0.00000000 </v>
   <v>      -0.31250000       0.12500000       0.00000000 </v>
   <v>      -0.25000000       0.12500000       0.00000000 </v>
   <v>       0.00000000       0.18750000       0.00000000 </v>
   <v>       0.06250000       0.18750000      -0.00000000 </v>
   <v>       0.12500000       0.18750000       0.00000000 </v>
   <v>       0.18750000       0.18750000       0.00000000 </v>
   <v>       0.25000000       0.18750000       0.00000000 </v>
   <v>       0.31250000       0.18750000      -0.00000000 </v>
   <v>       0.37500000       0.18750000       0.00000000 </v>
   <v>       0.43750000       0.18750000      -0.00000000 </v>
   <v>       0.50000000       0.18750000      -0.00000000 </v>
   <v>      -0.43750000       0.18750000       0.00000000 </v>
   <v>      -0.37500000       0.18750000       0.00000000 </v>
   <v>       0.00000000       0.25000000       0.00000000 </v>
   <v>       0.06250000       0.25000000       0.00000000 </v>
   <v>       0.12500000       0.25000000       0.00000000 </v>
   <v>       0.18750000       0.25000000      -0.00000000 </v>
   <v>       0.25000000       0.25000000       0.00000000 </v>
   <v>       0.31250000       0.25000000       0.00000000 </v>
   <v>       0.37500000       0.25000000      -0.00000000 </v>
   <v>       0.43750000       0.25000000      -0.00000000 </v>
   <v>       0.50000000       0.25000000       0.00000000 </v>
   <v>       0.00000000       0.31250000       0.00000000 </v>
   <v>       0.06250000       0.31250000      -0.00000000 </v>
   <v>       0.12500000       0.31250000       0.00000000 </v>
   <v>       0.18750000       0.31250000       0.00000000 </v>
   <v>       0.25000000       0.31250000      -0.00000000 </v>
   <v>       0.31250000       0.31250000      -0.00000000 </v>
   <v>       0.37500000       0.31250000       0.00000000 </v>
   <v>       0.00000000       0.37500000       0.00000000 </v>
   <v>       0.06250000       0.37500000       0.00000000 </v>
   <v>       0.12500000       0.37500000      -0.00000000 </v>
   <v>       0.18750000       0.37500000      -0.00000000 </v>
   <v>       0.25000000       0.37500000       0.00000000 </v>
   <v>       0.00000000       0.43750000      -0.00000000 </v>
   <v>       0.06250000       0.43750000      -0.00000000 </v>
   <v>       0.12500000       0.43750000       0.00000000 </v>
   <v>       0.00000000       0.50000000       0.00000000 </v>
   <v>       0.00000000       0.00000000       0.06250000 </v>
   <v>       0.06250000      -0.00000000       0.06250000 </v>
   <v>       0.12500000      -0.00000000       0.06250000 </v>
   <v>       0.18750000      -0.00000000       0.06250000 </v>
   <v>       0.25000000       0.00000000       0.06250000 </v>
   <v>       0.31250000       0.00000000       0.06250000 </v>
   <v>       0.37500000      -0.00000000       0.06250000 </v>
   <v>       0.43750000      -0.00000000       0.06250000 </v>
   <v>       0.50000000      -0.00000000       0.06250000 </v>
   <v>      -0.43750000       0.00000000       0.06250000 </v>
   <v>      -0.37500000       0.00000000       0.06250000 </v>
   <v>      -0.31250000       0.00000000       0.06250000 </v>
   <v>      -0.25000000       0.00000000       0.06250000 </v>
   <v>      -0.18750000       0.00000000       0.06250000 </v>
   <v>      -0.12500000       0.00000000       0.06250000 </v>
   <v>      -0.06250000       0.00000000       0.06250000 </v>
   <v>       0.00000000       0.06250000       0.06250000 </v>
   <v>       0.06250000       0.06250000       0.06250000 </v>
   <v>       0.12500000       0.06250000       0.06250000 </v>
   <v>       0.18750000       0.06250000       0.06250000 </v>
   <v>       0.25000000       0.06250000       0.06250000 </v>
   <v>       0.31250000       0.06250000       0.06250000 </v>
   <v>       0.37500000       0.06250000       0.06250000 </v>
   <v>       0.43750000       0.06250000       0.06250000 </v>
   <v>       0.50000000       0.06250000       0.06250000 </v>
   <v>      -0.43750000       0.06250000       0.06250000 </v>
   <v>      -0.37500000       0.06250000       0.06250000 </v>
   <v>      -0.31250000       0.06250000       0.06250000 </v>
   <v>      -0.25000000       0.06250000       0.06250000 </v>
   <v>      -0.18750000       0.06250000       0.06250000 </v>
   <v>      -0.12500000       0.06250000       0.06250000 </v>
   <v>       0.00000000       0.12500000       0.06250000 </v>
   <v>       0.06250000       0.12500000       0.06250000 </v>
   <v>       0.12500000       0.12500000       0.06250000 </v>
   <v>       0.18750000       0.12500000       0.06250000 </v>
   <v>       0.25000000       0.12500000       0.06250000 </v>
   <v>       0.31250000       0.12500000       0.06250000 </v>
   <v>       0.37500000       0.12500000       0.06250000 </v>
   <v>       0.43750000       0.12500000       0.06250000 </v>
   <v>       0.50000000       0.12500000       0.06250000 </v>
   <v>      -0.43750000       0.12500000       0.06250000 </v>
   <v>      -0.37500000       0.12500000       0.06250000 </v>
   <v>      -0.31250000       0.12500000       0.06250000 </v>
   <v>      -0.25000000       0.12500000       0.06250000 </v>
   <v>      -0.18750000       0.12500000       0.06250000 </v>
   <v>       0.00000000       0.18750000       0.06250000 </v>
   <v>       0.06250000       0.18750000       0.06250000 </v>
   <v>       0.12500000       0.18750000       0.06250000 </v>
   <v>       0.18750000       0.18750000       0.06250000 </v>
   <v>       0.25000000       0.18750000       0.06250000 </v>
   <v>       0.31250000       0.18750000       0.06250000 </v>
   <v>       0.37500000       0.18750000       0.06250000 </v>
   <v>       0.43750000       0.18750000       0.06250000 </v>
   <v>       0.50000000       0.18750000       0.06250000 </v>
   <v>      -0.43750000       0.18750000       0.06250000 </v>
   <v>      -0.37500000       0.18750000       0.06250000 </v>
   <v>      -0.31250000       0.18750000       0.06250000 </v>
   <v>      -0.25000000       0.18750000       0.06250000 </v>
   <v>       0.00000000       0.25000000       0.06250000 </v>
   <v>       0.06250000       0.25000000       0.06250000 </v>
   <v>       0.12500000       0.25000000       0.06250000 </v>
   <v>       0.18750000       0.25000000       0.06250000 </v>
   <v>       0.25000000       0.25000000       0.06250000 </v>
   <v>       0.31250000       0.25000000       0.06250000 </v>
   <v>       0.37500000       0.25000000       0.06250000 </v>
   <v>       0.43750000       0.25000000       0.06250000 </v>
   <v>       0.50000000       0.25000000       0.06250000 </v>
   <v>      -0.43750000       0.25000000       0.06250000 </v>
   <v>      -0.37500000       0.25000000       0.06250000 </v>
   <v>      -0.31250000       0.25000000       0.06250000 </v>
   <v>       0.00000000       0.31250000       0.06250000 </v>
   <v>       0.06250000       0.31250000       0.06250000 </v>
   <v>       0.12500000       0.31250000       0.06250000 </v>
   <v>       0.18750000       0.31250000       0.06250000 </v>
   <v>       0.25000000       0.31250000       0.06250000 </v>
   <v>       0.31250000       0.31250000       0.06250000 </v>
   <v>       0.37500000       0.31250000       0.06250000 </v>
   <v>       0.43750000       0.31250000       0.06250000 </v>
   <v>       0.50000000       0.31250000       0.06250000 </v>
   <v>      -0.43750000       0.31250000       0.06250000 </v>
   <v>      -0.37500000       0.31250000       0.06250000 </v>
   <v>       0.00000000       0.37500000       0.06250000 </v>
   <v>       0.06250000       0.37500000       0.06250000 </v>
   <v>       0.12500000       0.37500000       0.06250000 </v>
   <v>       0.18750000       0.37500000       0.06250000 </v>
   <v>       0.25000000       0.37500000       0.06250000 </v>
   <v>       0.31250000       0.37500000       0.06250000 </v>
   <v>       0.37500000       0.37500000       0.06250000 </v>
   <v>       0.43750000       0.37500000       0.06250000 </v>
   <v>       0.50000000       0.37500000       0.06250000 </v>
   <v>      -0.43750000       0.37500000       0.06250000 </v>
   <v>       0.00000000       0.43750000       0.06250000 </v>
   <v>       0.06250000       0.43750000       0.06250000 </v>
   <v>       0.12500000       0.43750000       0.06250000 </v>
   <v>       0.18750000       0.43750000       0.06250000 </v>
   <v>       0.25000000       0.43750000       0.06250000 </v>
   <v>       0.31250000       0.43750000       0.06250000 </v>
   <v>       0.37500000       0.43750000       0.06250000 </v>
   <v>       0.43750000       0.43750000       0.06250000 </v>
   <v>       0.50000000       0.43750000       0.06250000 </v>
   <v>       0.00000000       0.50000000       0.06250000 </v>
   <v>       0.06250000       0.50000000       0.06250000 </v>
   <v>       0.12500000       0.50000000       0.06250000 </v>
   <v>       0.18750000       0.50000000       0.06250000 </v>
   <v>       0.25000000       0.50000000       0.06250000 </v>
   <v>       0.31250000       0.50000000       0.06250000 </v>
   <v>       0.37500000       0.50000000       0.06250000 </v>
   <v>       0.43750000       0.50000000       0.06250000 </v>
   <v>       0.00000000      -0.43750000       0.06250000 </v>
   <v>       0.06250000      -0.43750000       0.06250000 </v>
   <v>       0.12500000      -0.43750000       0.06250000 </v>
   <v>       0.18750000      -0.43750000       0.06250000 </v>
   <v>       0.25000000      -0.43750000       0.06250000 </v>
   <v>       0.31250000      -0.43750000       0.06250000 </v>
   <v>       0.37500000      -0.43750000       0.06250000 </v>
   <v>       0.00000000      -0.37500000       0.06250000 </v>
   <v>       0.06250000      -0.37500000       0.06250000 </v>
   <v>       0.12500000      -0.37500000       0.06250000 </v>
   <v>       0.18750000      -0.37500000       0.06250000 </v>
   <v>       0.25000000      -0.37500000       0.06250000 </v>
   <v>       0.31250000      -0.37500000       0.06250000 </v>
   <v>       0.00000000      -0.31250000       0.06250000 </v>
   <v>       0.06250000      -0.31250000       0.06250000 </v>
   <v>       0.12500000      -0.31250000       0.06250000 </v>
   <v>       0.18750000      -0.31250000       0.06250000 </v>
   <v>       0.25000000      -0.31250000       0.06250000 </v>
   <v>       0.00000000      -0.25000000       0.06250000 </v>
   <v>       0.06250000      -0.25000000       0.06250000 </v>
   <v>       0.12500000      -0.25000000       0.06250000 </v>
   <v>       0.18750000      -0.25000000       0.06250000 </v>
   <v>       0.00000000      -0.18750000       0.06250000 </v>
   <v>       0.06250000      -0.18750000       0.06250000 </v>
   <v>       0.12500000      -0.18750000       0.06250000 </v>
   <v>       0.00000000      -0.12500000       0.06250000 </v>
   <v>       0.06250000      -0.12500000       0.06250000 </v>
   <v>       0.00000000      -0.06250000       0.06250000 </v>
   <v>       0.00000000       0.00000000       0.12500000 </v>
   <v>       0.06250000      -0.00000000       0.12500000 </v>
   <v>       0.12500000      -0.00000000       0.12500000 </v>
   <v>       0.18750000      -0.00000000       0.12500000 </v>
   <v>       0.25000000      -0.00000000       0.12500000 </v>
   <v>       0.31250000      -0.00000000       0.12500000 </v>
   <v>       0.37500000      -0.00000000       0.12500000 </v>
   <v>       0.43750000      -0.00000000       0.12500000 </v>
   <v>       0.50000000       0.00000000       0.12500000 </v>
   <v>      -0.43750000       0.00000000       0.12500000 </v>
   <v>      -0.37500000       0.00000000       0.12500000 </v>
   <v>      -0.31250000       0.00000000       0.12500000 </v>
   <v>      -0.25000000       0.00000000       0.12500000 </v>
   <v>      -0.18750000       0.00000000       0.12500000 </v>
   <v>      -0.12500000       0.00000000       0.12500000 </v>
   <v>      -0.06250000       0.00000000       0.12500000 </v>
   <v>       0.00000000       0.06250000       0.12500000 </v>
   <v>       0.06250000       0.06250000       0.12500000 </v>
   <v>       0.12500000       0.06250000       0.12500000 </v>
   <v>       0.18750000       0.06250000       0.12500000 </v>
   <v>       0.25000000       0.06250000       0.12500000 </v>
   <v>       0.31250000       0.06250000       0.12500000 </v>
   <v>       0.37500000       0.06250000       0.12500000 </v>
   <v>       0.43750000       0.06250000       0.12500000 </v>
   <v>       0.50000000       0.06250000       0.12500000 </v>
   <v>      -0.43750000       0.06250000       0.12500000 </v>
   <v>      -0.37500000       0.06250000       0.12500000 </v>
   <v>      -0.31250000       0.06250000       0.12500000 </v>
   <v>      -0.25000000       0.06250000       0.12500000 </v>
   <v>      -0.18750000       0.06250000       0.12500000 </v>
   <v>      -0.12500000       0.06250000       0.12500000 </v>
   <v>       0.00000000       0.12500000       0.12500000 </v>
   <v>       0.06250000       0.12500000       0.12500000 </v>
   <v>       0.12500000       0.12500000       0.12500000 </v>
   <v>       0.18750000       0.12500000       0.12500000 </v>
   <v>       0.25000000       0.12500000       0.12500000 </v>
   <v>       0.31250000       0.12500000       0.12500000 </v>
   <v>       0.37500000       0.12500000       0.12500000 </v>
   <v>       0.43750000       0.12500000       0.12500000 </v>
   <v>       0.50000000       0.12500000       0.12500000 </v>
   <v>      -0.43750000       0.12500000       0.12500000 </v>
   <v>      -0.37500000       0.12500000       0.12500000 </v>
   <v>      -0.31250000       0.12500000       0.12500000 </v>
   <v>      -0.25000000       0.12500000       0.12500000 </v>
   <v>      -0.18750000       0.12500000       0.12500000 </v>
   <v>       0.00000000       0.18750000       0.12500000 </v>
   <v>       0.06250000       0.18750000       0.12500000 </v>
   <v>       0.12500000       0.18750000       0.12500000 </v>
   <v>       0.18750000       0.18750000       0.12500000 </v>
   <v>       0.25000000       0.18750000       0.12500000 </v>
   <v>       0.31250000       0.18750000       0.12500000 </v>
   <v>       0.37500000       0.18750000       0.12500000 </v>
   <v>       0.43750000       0.18750000       0.12500000 </v>
   <v>       0.50000000       0.18750000       0.12500000 </v>
   <v>      -0.43750000       0.18750000       0.12500000 </v>
   <v>      -0.37500000       0.18750000       0.12500000 </v>
   <v>      -0.31250000       0.18750000       0.12500000 </v>
   <v>      -0.25000000       0.18750000       0.12500000 </v>
   <v>       0.00000000       0.25000000       0.12500000 </v>
   <v>       0.06250000       0.25000000       0.12500000 </v>
   <v>       0.12500000       0.25000000       0.12500000 </v>
   <v>       0.18750000       0.25000000       0.12500000 </v>
   <v>       0.25000000       0.25000000       0.12500000 </v>
   <v>       0.31250000       0.25000000       0.12500000 </v>
   <v>       0.37500000       0.25000000       0.12500000 </v>
   <v>       0.43750000       0.25000000       0.12500000 </v>
   <v>       0.50000000       0.25000000       0.12500000 </v>
   <v>      -0.43750000       0.25000000       0.12500000 </v>
   <v>      -0.37500000       0.25000000       0.12500000 </v>
   <v>      -0.31250000       0.25000000       0.12500000 </v>
   <v>       0.00000000       0.31250000       0.12500000 </v>
   <v>       0.06250000       0.31250000       0.12500000 </v>
   <v>       0.12500000       0.31250000       0.12500000 </v>
   <v>       0.18750000       0.31250000       0.12500000 </v>
   <v>       0.25000000       0.31250000       0.12500000 </v>
   <v>       0.31250000       0.31250000       0.12500000 </v>
   <v>       0.37500000       0.31250000       0.12500000 </v>
   <v>       0.43750000       0.31250000       0.12500000 </v>
   <v>       0.50000000       0.31250000       0.12500000 </v>
   <v>      -0.43750000       0.31250000       0.12500000 </v>
   <v>      -0.37500000       0.31250000       0.12500000 </v>
   <v>       0.00000000       0.37500000       0.12500000 </v>
   <v>       0.06250000       0.37500000       0.12500000 </v>
   <v>       0.12500000       0.37500000       0.12500000 </v>
   <v>       0.18750000       0.37500000       0.12500000 </v>
   <v>       0.25000000       0.37500000       0.12500000 </v>
   <v>       0.31250000       0.37500000       0.12500000 </v>
   <v>       0.37500000       0.37500000       0.12500000 </v>
   <v>       0.43750000       0.37500000       0.12500000 </v>
   <v>       0.50000000       0.37500000       0.12500000 </v>
   <v>      -0.43750000       0.37500000       0.12500000 </v>
   <v>       0.00000000       0.43750000       0.12500000 </v>
   <v>       0.06250000       0.43750000       0.12500000 </v>
   <v>       0.12500000       0.43750000       0.12500000 </v>
   <v>       0.18750000       0.43750000       0.12500000 </v>
   <v>       0.25000000       0.43750000       0.12500000 </v>
   <v>       0.31250000       0.43750000       0.12500000 </v>
   <v>       0.37500000       0.43750000       0.12500000 </v>
   <v>       0.43750000       0.43750000       0.12500000 </v>
   <v>       0.50000000       0.43750000       0.12500000 </v>
   <v>       0.00000000       0.50000000       0.12500000 </v>
   <v>       0.06250000       0.50000000       0.12500000 </v>
   <v>       0.12500000       0.50000000       0.12500000 </v>
   <v>       0.18750000       0.50000000       0.12500000 </v>
   <v>       0.25000000       0.50000000       0.12500000 </v>
   <v>       0.31250000       0.50000000       0.12500000 </v>
   <v>       0.37500000       0.50000000       0.12500000 </v>
   <v>       0.43750000       0.50000000       0.12500000 </v>
   <v>       0.00000000      -0.43750000       0.12500000 </v>
   <v>       0.06250000      -0.43750000       0.12500000 </v>
   <v>       0.12500000      -0.43750000       0.12500000 </v>
   <v>       0.18750000      -0.43750000       0.12500000 </v>
   <v>       0.25000000      -0.43750000       0.12500000 </v>
   <v>       0.31250000      -0.43750000       0.12500000 </v>
   <v>       0.37500000      -0.43750000       0.12500000 </v>
   <v>       0.00000000      -0.37500000       0.12500000 </v>
   <v>       0.06250000      -0.37500000       0.12500000 </v>
   <v>       0.12500000      -0.37500000       0.12500000 </v>
   <v>       0.18750000      -0.37500000       0.12500000 </v>
   <v>       0.25000000      -0.37500000       0.12500000 </v>
   <v>       0.31250000      -0.37500000       0.12500000 </v>
   <v>       0.00000000      -0.31250000       0.12500000 </v>
   <v>       0.06250000      -0.31250000       0.12500000 </v>
   <v>       0.12500000      -0.31250000       0.12500000 </v>
   <v>       0.18750000      -0.31250000       0.12500000 </v>
   <v>       0.25000000      -0.31250000       0.12500000 </v>
   <v>       0.00000000      -0.25000000       0.12500000 </v>
   <v>       0.06250000      -0.25000000       0.12500000 </v>
   <v>       0.12500000      -0.25000000       0.12500000 </v>
   <v>       0.18750000      -0.25000000       0.12500000 </v>
   <v>       0.00000000      -0.18750000       0.12500000 </v>
   <v>       0.06250000      -0.18750000       0.12500000 </v>
   <v>       0.12500000      -0.18750000       0.12500000 </v>
   <v>       0.00000000      -0.12500000       0.12500000 </v>
   <v>       0.06250000      -0.12500000       0.12500000 </v>
   <v>       0.00000000      -0.06250000       0.12500000 </v>
   <v>       0.00000000       0.00000000       0.18750000 </v>
   <v>       0.06250000      -0.00000000       0.18750000 </v>
   <v>       0.12500000       0.00000000       0.18750000 </v>
   <v>       0.18750000       0.00000000       0.18750000 </v>
   <v>       0.25000000      -0.00000000       0.18750000 </v>
   <v>       0.31250000      -0.00000000       0.18750000 </v>
   <v>       0.37500000      -0.00000000       0.18750000 </v>
   <v>       0.43750000      -0.00000000       0.18750000 </v>
   <v>       0.50000000      -0.00000000       0.18750000 </v>
   <v>      -0.43750000       0.00000000       0.18750000 </v>
   <v>      -0.37500000      -0.00000000       0.18750000 </v>
   <v>      -0.31250000       0.00000000       0.18750000 </v>
   <v>      -0.25000000       0.00000000       0.18750000 </v>
   <v>      -0.18750000       0.00000000       0.18750000 </v>
   <v>      -0.12500000       0.00000000       0.18750000 </v>
   <v>      -0.06250000       0.00000000       0.18750000 </v>
   <v>       0.00000000       0.06250000       0.18750000 </v>
   <v>       0.06250000       0.06250000       0.18750000 </v>
   <v>       0.12500000       0.06250000       0.18750000 </v>
   <v>       0.18750000       0.06250000       0.18750000 </v>
   <v>       0.25000000       0.06250000       0.18750000 </v>
   <v>       0.31250000       0.06250000       0.18750000 </v>
   <v>       0.37500000       0.06250000       0.18750000 </v>
   <v>       0.43750000       0.06250000       0.18750000 </v>
   <v>       0.50000000       0.06250000       0.18750000 </v>
   <v>      -0.43750000       0.06250000       0.18750000 </v>
   <v>      -0.37500000       0.06250000       0.18750000 </v>
   <v>      -0.31250000       0.06250000       0.18750000 </v>
   <v>      -0.25000000       0.06250000       0.18750000 </v>
   <v>      -0.18750000       0.06250000       0.18750000 </v>
   <v>      -0.12500000       0.06250000       0.18750000 </v>
   <v>       0.00000000       0.12500000       0.18750000 </v>
   <v>       0.06250000       0.12500000       0.18750000 </v>
   <v>       0.12500000       0.12500000       0.18750000 </v>
   <v>       0.18750000       0.12500000       0.18750000 </v>
   <v>       0.25000000       0.12500000       0.18750000 </v>
   <v>       0.31250000       0.12500000       0.18750000 </v>
   <v>       0.37500000       0.12500000       0.18750000 </v>
   <v>       0.43750000       0.12500000       0.18750000 </v>
   <v>       0.50000000       0.12500000       0.18750000 </v>
   <v>      -0.43750000       0.12500000       0.18750000 </v>
   <v>      -0.37500000       0.12500000       0.18750000 </v>
   <v>      -0.31250000       0.12500000       0.18750000 </v>
   <v>      -0.25000000       0.12500000       0.18750000 </v>
   <v>      -0.18750000       0.12500000       0.18750000 </v>
   <v>       0.00000000       0.18750000       0.18750000 </v>
   <v>       0.06250000       0.18750000       0.18750000 </v>
   <v>       0.12500000       0.18750000       0.18750000 </v>
   <v>       0.18750000       0.18750000       0.18750000 </v>
   <v>       0.25000000       0.18750000       0.18750000 </v>
   <v>       0.31250000       0.18750000       0.18750000 </v>
   <v>       0.37500000       0.18750000       0.18750000 </v>
   <v>       0.43750000       0.18750000       0.18750000 </v>
   <v>       0.50000000       0.18750000       0.18750000 </v>
   <v>      -0.43750000       0.18750000       0.18750000 </v>
   <v>      -0.37500000       0.18750000       0.18750000 </v>
   <v>      -0.31250000       0.18750000       0.18750000 </v>
   <v>      -0.25000000       0.18750000       0.18750000 </v>
   <v>       0.00000000       0.25000000       0.18750000 </v>
   <v>       0.06250000       0.25000000       0.18750000 </v>
   <v>       0.12500000       0.25000000       0.18750000 </v>
   <v>       0.18750000       0.25000000       0.18750000 </v>
   <v>       0.25000000       0.25000000       0.18750000 </v>
   <v>       0.31250000       0.25000000       0.18750000 </v>
   <v>       0.37500000       0.25000000       0.18750000 </v>
   <v>       0.43750000       0.25000000       0.18750000 </v>
   <v>       0.50000000       0.25000000       0.18750000 </v>
   <v>      -0.43750000       0.25000000       0.18750000 </v>
   <v>      -0.37500000       0.25000000       0.18750000 </v>
   <v>      -0.31250000       0.25000000       0.18750000 </v>
   <v>       0.00000000       0.31250000       0.18750000 </v>
   <v>       0.06250000       0.31250000       0.18750000 </v>
   <v>       0.12500000       0.31250000       0.18750000 </v>
   <v>       0.18750000       0.31250000       0.18750000 </v>
   <v>       0.25000000       0.31250000       0.18750000 </v>
   <v>       0.31250000       0.31250000       0.18750000 </v>
   <v>       0.37500000       0.31250000       0.18750000 </v>
   <v>       0.43750000       0.31250000       0.18750000 </v>
   <v>       0.50000000       0.31250000       0.18750000 </v>
   <v>      -0.43750000       0.31250000       0.18750000 </v>
   <v>      -0.37500000       0.31250000       0.18750000 </v>
   <v>       0.00000000       0.37500000       0.18750000 </v>
   <v>       0.06250000       0.37500000       0.18750000 </v>
   <v>       0.12500000       0.37500000       0.18750000 </v>
   <v>       0.18750000       0.37500000       0.18750000 </v>
   <v>       0.25000000       0.37500000       0.18750000 </v>
   <v>       0.31250000       0.37500000       0.18750000 </v>
   <v>       0.37500000       0.37500000       0.18750000 </v>
   <v>       0.43750000       0.37500000       0.18750000 </v>
   <v>       0.50000000       0.37500000       0.18750000 </v>
   <v>      -0.43750000       0.37500000       0.18750000 </v>
   <v>       0.00000000       0.43750000       0.18750000 </v>
   <v>       0.06250000       0.43750000       0.18750000 </v>
   <v>       0.12500000       0.43750000       0.18750000 </v>
   <v>       0.18750000       0.43750000       0.18750000 </v>
   <v>       0.25000000       0.43750000       0.18750000 </v>
   <v>       0.31250000       0.43750000       0.18750000 </v>
   <v>       0.37500000       0.43750000       0.18750000 </v>
   <v>       0.43750000       0.43750000       0.18750000 </v>
   <v>       0.50000000       0.43750000       0.18750000 </v>
   <v>       0.00000000       0.50000000       0.18750000 </v>
   <v>       0.06250000       0.50000000       0.18750000 </v>
   <v>       0.12500000       0.50000000       0.18750000 </v>
   <v>       0.18750000       0.50000000       0.18750000 </v>
   <v>       0.25000000       0.50000000       0.18750000 </v>
   <v>       0.31250000       0.50000000       0.18750000 </v>
   <v>       0.37500000       0.50000000       0.18750000 </v>
   <v>       0.43750000       0.50000000       0.18750000 </v>
   <v>       0.00000000      -0.43750000       0.18750000 </v>
   <v>       0.06250000      -0.43750000       0.18750000 </v>
   <v>       0.12500000      -0.43750000       0.18750000 </v>
   <v>       0.18750000      -0.43750000       0.18750000 </v>
   <v>       0.25000000      -0.43750000       0.18750000 </v>
   <v>       0.31250000      -0.43750000       0.18750000 </v>
   <v>       0.37500000      -0.43750000       0.18750000 </v>
   <v>       0.00000000      -0.37500000       0.18750000 </v>
   <v>       0.06250000      -0.37500000       0.18750000 </v>
   <v>       0.12500000      -0.37500000       0.18750000 </v>
   <v>       0.18750000      -0.37500000       0.18750000 </v>
   <v>       0.25000000      -0.37500000       0.18750000 </v>
   <v>       0.31250000      -0.37500000       0.18750000 </v>
   <v>       0.00000000      -0.31250000       0.18750000 </v>
   <v>       0.06250000      -0.31250000       0.18750000 </v>
   <v>       0.12500000      -0.31250000       0.18750000 </v>
   <v>       0.18750000      -0.31250000       0.18750000 </v>
   <v>       0.25000000      -0.31250000       0.18750000 </v>
   <v>       0.00000000      -0.25000000       0.18750000 </v>
   <v>       0.06250000      -0.25000000       0.18750000 </v>
   <v>       0.12500000      -0.25000000       0.18750000 </v>
   <v>       0.18750000      -0.25000000       0.18750000 </v>
   <v>       0.00000000      -0.18750000       0.18750000 </v>
   <v>       0.06250000      -0.18750000       0.18750000 </v>
   <v>       0.12500000      -0.18750000       0.18750000 </v>
   <v>       0.00000000      -0.12500000       0.18750000 </v>
   <v>       0.06250000      -0.12500000       0.18750000 </v>
   <v>       0.00000000      -0.06250000       0.18750000 </v>
   <v>       0.00000000       0.00000000       0.25000000 </v>
   <v>       0.06250000      -0.00000000       0.25000000 </v>
   <v>       0.12500000      -0.00000000       0.25000000 </v>
   <v>       0.18750000      -0.00000000       0.25000000 </v>
   <v>       0.25000000      -0.00000000       0.25000000 </v>
   <v>       0.31250000      -0.00000000       0.25000000 </v>
   <v>       0.37500000      -0.00000000       0.25000000 </v>
   <v>       0.43750000      -0.00000000       0.25000000 </v>
   <v>       0.50000000      -0.00000000       0.25000000 </v>
   <v>      -0.43750000       0.00000000       0.25000000 </v>
   <v>      -0.37500000       0.00000000       0.25000000 </v>
   <v>      -0.31250000       0.00000000       0.25000000 </v>
   <v>      -0.25000000       0.00000000       0.25000000 </v>
   <v>      -0.18750000       0.00000000       0.25000000 </v>
   <v>      -0.12500000       0.00000000       0.25000000 </v>
   <v>      -0.06250000       0.00000000       0.25000000 </v>
   <v>       0.00000000       0.06250000       0.25000000 </v>
   <v>       0.06250000       0.06250000       0.25000000 </v>
   <v>       0.12500000       0.06250000       0.25000000 </v>
   <v>       0.18750000       0.06250000       0.25000000 </v>
   <v>       0.25000000       0.06250000       0.25000000 </v>
   <v>       0.31250000       0.06250000       0.25000000 </v>
   <v>       0.37500000       0.06250000       0.25000000 </v>
   <v>       0.43750000       0.06250000       0.25000000 </v>
   <v>       0.50000000       0.06250000       0.25000000 </v>
   <v>      -0.43750000       0.06250000       0.25000000 </v>
   <v>      -0.37500000       0.06250000       0.25000000 </v>
   <v>      -0.31250000       0.06250000       0.25000000 </v>
   <v>      -0.25000000       0.06250000       0.25000000 </v>
   <v>      -0.18750000       0.06250000       0.25000000 </v>
   <v>      -0.12500000       0.06250000       0.25000000 </v>
   <v>       0.00000000       0.12500000       0.25000000 </v>
   <v>       0.06250000       0.12500000       0.25000000 </v>
   <v>       0.12500000       0.12500000       0.25000000 </v>
   <v>       0.18750000       0.12500000       0.25000000 </v>
   <v>       0.25000000       0.12500000       0.25000000 </v>
   <v>       0.31250000       0.12500000       0.25000000 </v>
   <v>       0.37500000       0.12500000       0.25000000 </v>
   <v>       0.43750000       0.12500000       0.25000000 </v>
   <v>       0.50000000       0.12500000       0.25000000 </v>
   <v>      -0.43750000       0.12500000       0.25000000 </v>
   <v>      -0.37500000       0.12500000       0.25000000 </v>
   <v>      -0.31250000       0.12500000       0.25000000 </v>
   <v>      -0.25000000       0.12500000       0.25000000 </v>
   <v>      -0.18750000       0.12500000       0.25000000 </v>
   <v>       0.00000000       0.18750000       0.25000000 </v>
   <v>       0.06250000       0.18750000       0.25000000 </v>
   <v>       0.12500000       0.18750000       0.25000000 </v>
   <v>       0.18750000       0.18750000       0.25000000 </v>
   <v>       0.25000000       0.18750000       0.25000000 </v>
   <v>       0.31250000       0.18750000       0.25000000 </v>
   <v>       0.37500000       0.18750000       0.25000000 </v>
   <v>       0.43750000       0.18750000       0.25000000 </v>
   <v>       0.50000000       0.18750000       0.25000000 </v>
   <v>      -0.43750000       0.18750000       0.25000000 </v>
   <v>      -0.37500000       0.18750000       0.25000000 </v>
   <v>      -0.31250000       0.18750000       0.25000000 </v>
   <v>      -0.25000000       0.18750000       0.25000000 </v>
   <v>       0.00000000       0.25000000       0.25000000 </v>
   <v>       0.06250000       0.25000000       0.25000000 </v>
   <v>       0.12500000       0.25000000       0.25000000 </v>
   <v>       0.18750000       0.25000000       0.25000000 </v>
   <v>       0.25000000       0.25000000       0.25000000 </v>
   <v>       0.31250000       0.25000000       0.25000000 </v>
   <v>       0.37500000       0.25000000       0.25000000 </v>
   <v>       0.43750000       0.25000000       0.25000000 </v>
   <v>       0.50000000       0.25000000       0.25000000 </v>
   <v>      -0.43750000       0.25000000       0.25000000 </v>
   <v>      -0.37500000       0.25000000       0.25000000 </v>
   <v>      -0.31250000       0.25000000       0.25000000 </v>
   <v>       0.00000000       0.31250000       0.25000000 </v>
   <v>       0.06250000       0.31250000       0.25000000 </v>
   <v>       0.12500000       0.31250000       0.25000000 </v>
   <v>       0.18750000       0.31250000       0.25000000 </v>
   <v>       0.25000000       0.31250000       0.25000000 </v>
   <v>       0.31250000       0.31250000       0.25000000 </v>
   <v>       0.37500000       0.31250000       0.25000000 </v>
   <v>       0.43750000       0.31250000       0.25000000 </v>
   <v>       0.50000000       0.31250000       0.25000000 </v>
   <v>      -0.43750000       0.31250000       0.25000000 </v>
   <v>      -0.37500000       0.31250000       0.25000000 </v>
   <v>       0.00000000       0.37500000       0.25000000 </v>
   <v>       0.06250000       0.37500000       0.25000000 </v>
   <v>       0.12500000       0.37500000       0.25000000 </v>
   <v>       0.18750000       0.37500000       0.25000000 </v>
   <v>       0.25000000       0.37500000       0.25000000 </v>
   <v>       0.31250000       0.37500000       0.25000000 </v>
   <v>       0.37500000       0.37500000       0.25000000 </v>
   <v>       0.43750000       0.37500000       0.25000000 </v>
   <v>       0.50000000       0.37500000       0.25000000 </v>
   <v>      -0.43750000       0.37500000       0.25000000 </v>
   <v>       0.00000000       0.43750000       0.25000000 </v>
   <v>       0.06250000       0.43750000       0.25000000 </v>
   <v>       0.12500000       0.43750000       0.25000000 </v>
   <v>       0.18750000       0.43750000       0.25000000 </v>
   <v>       0.25000000       0.43750000       0.25000000 </v>
   <v>       0.31250000       0.43750000       0.25000000 </v>
   <v>       0.37500000       0.43750000       0.25000000 </v>
   <v>       0.43750000       0.43750000       0.25000000 </v>
   <v>       0.50000000       0.43750000       0.25000000 </v>
   <v>       0.00000000       0.50000000       0.25000000 </v>
   <v>       0.06250000       0.50000000       0.25000000 </v>
   <v>       0.12500000       0.50000000       0.25000000 </v>
   <v>       0.18750000       0.50000000       0.25000000 </v>
   <v>       0.25000000       0.50000000       0.25000000 </v>
   <v>       0.31250000       0.50000000       0.25000000 </v>
   <v>       0.37500000       0.50000000       0.25000000 </v>
   <v>       0.43750000       0.50000000       0.25000000 </v>
   <v>       0.00000000      -0.43750000       0.25000000 </v>
   <v>       0.06250000      -0.43750000       0.25000000 </v>
   <v>       0.12500000      -0.43750000       0.25000000 </v>
   <v>       0.18750000      -0.43750000       0.25000000 </v>
   <v>       0.25000000      -0.43750000       0.25000000 </v>
   <v>       0.31250000      -0.43750000       0.25000000 </v>
   <v>       0.37500000      -0.43750000       0.25000000 </v>
   <v>       0.00000000      -0.37500000       0.25000000 </v>
   <v>       0.06250000      -0.37500000       0.25000000 </v>
   <v>       0.12500000      -0.37500000       0.25000000 </v>
   <v>       0.18750000      -0.37500000       0.25000000 </v>
   <v>       0.25000000      -0.37500000       0.25000000 </v>
   <v>       0.31250000      -0.37500000       0.25000000 </v>
   <v>       0.00000000      -0.31250000       0.25000000 </v>
   <v>       0.06250000      -0.31250000       0.25000000 </v>
   <v>       0.12500000      -0.31250000       0.25000000 </v>
   <v>       0.18750000      -0.31250000       0.25000000 </v>
   <v>       0.25000000      -0.31250000       0.25000000 </v>
   <v>       0.00000000      -0.25000000       0.25000000 </v>
   <v>       0.06250000      -0.25000000       0.25000000 </v>
   <v>       0.12500000      -0.25000000       0.25000000 </v>
   <v>       0.18750000      -0.25000000       0.25000000 </v>
   <v>       0.00000000      -0.18750000       0.25000000 </v>
   <v>       0.06250000      -0.18750000       0.25000000 </v>
   <v>       0.12500000      -0.18750000       0.25000000 </v>
   <v>       0.00000000      -0.12500000       0.25000000 </v>
   <v>       0.06250000      -0.12500000       0.25000000 </v>
   <v>       0.00000000      -0.06250000       0.25000000 </v>
   <v>       0.00000000       0.00000000       0.31250000 </v>
   <v>       0.06250000       0.00000000       0.31250000 </v>
   <v>       0.12500000      -0.00000000       0.31250000 </v>
   <v>       0.18750000       0.00000000       0.31250000 </v>
   <v>       0.25000000       0.00000000       0.31250000 </v>
   <v>       0.31250000      -0.00000000       0.31250000 </v>
   <v>       0.37500000      -0.00000000       0.31250000 </v>
   <v>       0.43750000      -0.00000000       0.31250000 </v>
   <v>       0.50000000      -0.00000000       0.31250000 </v>
   <v>      -0.43750000       0.00000000       0.31250000 </v>
   <v>      -0.37500000       0.00000000       0.31250000 </v>
   <v>      -0.31250000       0.00000000       0.31250000 </v>
   <v>      -0.25000000       0.00000000       0.31250000 </v>
   <v>      -0.18750000       0.00000000       0.31250000 </v>
   <v>      -0.12500000       0.00000000       0.31250000 </v>
   <v>      -0.06250000       0.00000000       0.31250000 </v>
   <v>       0.00000000       0.06250000       0.31250000 </v>
   <v>       0.06250000       0.06250000       0.31250000 </v>
   <v>       0.12500000       0.06250000       0.31250000 </v>
   <v>       0.18750000       0.06250000       0.31250000 </v>
   <v>       0.25000000       0.06250000       0.31250000 </v>
   <v>       0.31250000       0.06250000       0.31250000 </v>
   <v>       0.37500000       0.06250000       0.31250000 </v>
   <v>       0.43750000       0.06250000       0.31250000 </v>
   <v>       0.50000000       0.06250000       0.31250000 </v>
   <v>      -0.43750000       0.06250000       0.31250000 </v>
   <v>      -0.37500000       0.06250000       0.31250000 </v>
   <v>      -0.31250000       0.06250000       0.31250000 </v>
   <v>      -0.25000000       0.06250000       0.31250000 </v>
   <v>      -0.18750000       0.06250000       0.31250000 </v>
   <v>      -0.12500000       0.06250000       0.31250000 </v>
   <v>       0.00000000       0.12500000       0.31250000 </v>
   <v>       0.06250000       0.12500000       0.31250000 </v>
   <v>       0.12500000       0.12500000       0.31250000 </v>
   <v>       0.18750000       0.12500000       0.31250000 </v>
   <v>       0.25000000       0.12500000       0.31250000 </v>
   <v>       0.31250000       0.12500000       0.31250000 </v>
   <v>       0.37500000       0.12500000       0.31250000 </v>
   <v>       0.43750000       0.12500000       0.31250000 </v>
   <v>       0.50000000       0.12500000       0.31250000 </v>
   <v>      -0.43750000       0.12500000       0.31250000 </v>
   <v>      -0.37500000       0.12500000       0.31250000 </v>
   <v>      -0.31250000       0.12500000       0.31250000 </v>
   <v>      -0.25000000       0.12500000       0.31250000 </v>
   <v>      -0.18750000       0.12500000       0.31250000 </v>
   <v>       0.00000000       0.18750000       0.31250000 </v>
   <v>       0.06250000       0.18750000       0.31250000 </v>
   <v>       0.12500000       0.18750000       0.31250000 </v>
   <v>       0.18750000       0.18750000       0.31250000 </v>
   <v>       0.25000000       0.18750000       0.31250000 </v>
   <v>       0.31250000       0.18750000       0.31250000 </v>
   <v>       0.37500000       0.18750000       0.31250000 </v>
   <v>       0.43750000       0.18750000       0.31250000 </v>
   <v>       0.50000000       0.18750000       0.31250000 </v>
   <v>      -0.43750000       0.18750000       0.31250000 </v>
   <v>      -0.37500000       0.18750000       0.31250000 </v>
   <v>      -0.31250000       0.18750000       0.31250000 </v>
   <v>      -0.25000000       0.18750000       0.31250000 </v>
   <v>       0.00000000       0.25000000       0.31250000 </v>
   <v>       0.06250000       0.25000000       0.31250000 </v>
   <v>       0.12500000       0.25000000       0.31250000 </v>
   <v>       0.18750000       0.25000000       0.31250000 </v>
   <v>       0.25000000       0.25000000       0.31250000 </v>
   <v>       0.31250000       0.25000000       0.31250000 </v>
   <v>       0.37500000       0.25000000       0.31250000 </v>
   <v>       0.43750000       0.25000000       0.31250000 </v>
   <v>       0.50000000       0.25000000       0.31250000 </v>
   <v>      -0.43750000       0.25000000       0.31250000 </v>
   <v>      -0.37500000       0.25000000       0.31250000 </v>
   <v>      -0.31250000       0.25000000       0.31250000 </v>
   <v>       0.00000000       0.31250000       0.31250000 </v>
   <v>       0.06250000       0.31250000       0.31250000 </v>
   <v>       0.12500000       0.31250000       0.31250000 </v>
   <v>       0.18750000       0.31250000       0.31250000 </v>
   <v>       0.25000000       0.31250000       0.31250000 </v>
   <v>       0.31250000       0.31250000       0.31250000 </v>
   <v>       0.37500000       0.31250000       0.31250000 </v>
   <v>       0.43750000       0.31250000       0.31250000 </v>
   <v>       0.50000000       0.31250000       0.31250000 </v>
   <v>      -0.43750000       0.31250000       0.31250000 </v>
   <v>      -0.37500000       0.31250000       0.31250000 </v>
   <v>       0.00000000       0.37500000       0.31250000 </v>
   <v>       0.06250000       0.37500000       0.31250000 </v>
   <v>       0.12500000       0.37500000       0.31250000 </v>
   <v>       0.18750000       0.37500000       0.31250000 </v>
   <v>       0.25000000       0.37500000       0.31250000 </v>
   <v>       0.31250000       0.37500000       0.31250000 </v>
   <v>       0.37500000       0.37500000       0.31250000 </v>
   <v>       0.43750000       0.37500000       0.31250000 </v>
   <v>       0.50000000       0.37500000       0.31250000 </v>
   <v>      -0.43750000       0.37500000       0.31250000 </v>
   <v>       0.00000000       0.43750000       0.31250000 </v>
   <v>       0.06250000       0.43750000       0.31250000 </v>
   <v>       0.12500000       0.43750000       0.31250000 </v>
   <v>       0.18750000       0.43750000       0.31250000 </v>
   <v>       0.25000000       0.43750000       0.31250000 </v>
   <v>       0.31250000       0.43750000       0.31250000 </v>
   <v>       0.37500000       0.43750000       0.31250000 </v>
   <v>       0.43750000       0.43750000       0.31250000 </v>
   <v>       0.50000000       0.43750000       0.31250000 </v>
   <v>       0.00000000       0.50000000       0.31250000 </v>
   <v>       0.06250000       0.50000000       0.31250000 </v>
   <v>       0.12500000       0.50000000       0.31250000 </v>
   <v>       0.18750000       0.50000000       0.31250000 </v>
   <v>       0.25000000       0.50000000       0.31250000 </v>
   <v>       0.31250000       0.50000000       0.31250000 </v>
   <v>       0.37500000       0.50000000       0.31250000 </v>
   <v>       0.43750000       0.50000000       0.31250000 </v>
   <v>       0.00000000      -0.43750000       0.31250000 </v>
   <v>       0.06250000      -0.43750000       0.31250000 </v>
   <v>       0.12500000      -0.43750000       0.31250000 </v>
   <v>       0.18750000      -0.43750000       0.31250000 </v>
   <v>       0.25000000      -0.43750000       0.31250000 </v>
   <v>       0.31250000      -0.43750000       0.31250000 </v>
   <v>       0.37500000      -0.43750000       0.31250000 </v>
   <v>       0.00000000      -0.37500000       0.31250000 </v>
   <v>       0.06250000      -0.37500000       0.31250000 </v>
   <v>       0.12500000      -0.37500000       0.31250000 </v>
   <v>       0.18750000      -0.37500000       0.31250000 </v>
   <v>       0.25000000      -0.37500000       0.31250000 </v>
   <v>       0.31250000      -0.37500000       0.31250000 </v>
   <v>       0.00000000      -0.31250000       0.31250000 </v>
   <v>       0.06250000      -0.31250000       0.31250000 </v>
   <v>       0.12500000      -0.31250000       0.31250000 </v>
   <v>       0.18750000      -0.31250000       0.31250000 </v>
   <v>       0.25000000      -0.31250000       0.31250000 </v>
   <v>       0.00000000      -0.25000000       0.31250000 </v>
   <v>       0.06250000      -0.25000000       0.31250000 </v>
   <v>       0.12500000      -0.25000000       0.31250000 </v>
   <v>       0.18750000      -0.25000000       0.31250000 </v>
   <v>       0.00000000      -0.18750000       0.31250000 </v>
   <v>       0.06250000      -0.18750000       0.31250000 </v>
   <v>       0.12500000      -0.18750000       0.31250000 </v>
   <v>       0.00000000      -0.12500000       0.31250000 </v>
   <v>       0.06250000      -0.12500000       0.31250000 </v>
   <v>       0.00000000      -0.06250000       0.31250000 </v>
   <v>       0.00000000       0.00000000       0.37500000 </v>
   <v>       0.06250000      -0.00000000       0.37500000 </v>
   <v>       0.12500000      -0.00000000       0.37500000 </v>
   <v>       0.18750000       0.00000000       0.37500000 </v>
   <v>       0.25000000       0.00000000       0.37500000 </v>
   <v>       0.31250000       0.00000000       0.37500000 </v>
   <v>       0.37500000       0.00000000       0.37500000 </v>
   <v>       0.43750000      -0.00000000       0.37500000 </v>
   <v>       0.50000000      -0.00000000       0.37500000 </v>
   <v>      -0.43750000       0.00000000       0.37500000 </v>
   <v>      -0.37500000       0.00000000       0.37500000 </v>
   <v>      -0.31250000       0.00000000       0.37500000 </v>
   <v>      -0.25000000       0.00000000       0.37500000 </v>
   <v>      -0.18750000       0.00000000       0.37500000 </v>
   <v>      -0.12500000       0.00000000       0.37500000 </v>
   <v>      -0.06250000       0.00000000       0.37500000 </v>
   <v>       0.00000000       0.06250000       0.37500000 </v>
   <v>       0.06250000       0.06250000       0.37500000 </v>
   <v>       0.12500000       0.06250000       0.37500000 </v>
   <v>       0.18750000       0.06250000       0.37500000 </v>
   <v>       0.25000000       0.06250000       0.37500000 </v>
   <v>       0.31250000       0.06250000       0.37500000 </v>
   <v>       0.37500000       0.06250000       0.37500000 </v>
   <v>       0.43750000       0.06250000       0.37500000 </v>
   <v>       0.50000000       0.06250000       0.37500000 </v>
   <v>      -0.43750000       0.06250000       0.37500000 </v>
   <v>      -0.37500000       0.06250000       0.37500000 </v>
   <v>      -0.31250000       0.06250000       0.37500000 </v>
   <v>      -0.25000000       0.06250000       0.37500000 </v>
   <v>      -0.18750000       0.06250000       0.37500000 </v>
   <v>      -0.12500000       0.06250000       0.37500000 </v>
   <v>       0.00000000       0.12500000       0.37500000 </v>
   <v>       0.06250000       0.12500000       0.37500000 </v>
   <v>       0.12500000       0.12500000       0.37500000 </v>
   <v>       0.18750000       0.12500000       0.37500000 </v>
   <v>       0.25000000       0.12500000       0.37500000 </v>
   <v>       0.31250000       0.12500000       0.37500000 </v>
   <v>       0.37500000       0.12500000       0.37500000 </v>
   <v>       0.43750000       0.12500000       0.37500000 </v>
   <v>       0.50000000       0.12500000       0.37500000 </v>
   <v>      -0.43750000       0.12500000       0.37500000 </v>
   <v>      -0.37500000       0.12500000       0.37500000 </v>
   <v>      -0.31250000       0.12500000       0.37500000 </v>
   <v>      -0.25000000       0.12500000       0.37500000 </v>
   <v>      -0.18750000       0.12500000       0.37500000 </v>
   <v>       0.00000000       0.18750000       0.37500000 </v>
   <v>       0.06250000       0.18750000       0.37500000 </v>
   <v>       0.12500000       0.18750000       0.37500000 </v>
   <v>       0.18750000       0.18750000       0.37500000 </v>
   <v>       0.25000000       0.18750000       0.37500000 </v>
   <v>       0.31250000       0.18750000       0.37500000 </v>
   <v>       0.37500000       0.18750000       0.37500000 </v>
   <v>       0.43750000       0.18750000       0.37500000 </v>
   <v>       0.50000000       0.18750000       0.37500000 </v>
   <v>      -0.43750000       0.18750000       0.37500000 </v>
   <v>      -0.37500000       0.18750000       0.37500000 </v>
   <v>      -0.31250000       0.18750000       0.37500000 </v>
   <v>      -0.25000000       0.18750000       0.37500000 </v>
   <v>       0.00000000       0.25000000       0.37500000 </v>
   <v>       0.06250000       0.25000000       0.37500000 </v>
   <v>       0.12500000       0.25000000       0.37500000 </v>
   <v>       0.18750000       0.25000000       0.37500000 </v>
   <v>       0.25000000       0.25000000       0.37500000 </v>
   <v>       0.31250000       0.25000000       0.37500000 </v>
   <v>       0.37500000       0.25000000       0.37500000 </v>
   <v>       0.43750000       0.25000000       0.37500000 </v>
   <v>       0.50000000       0.25000000       0.37500000 </v>
   <v>      -0.43750000       0.25000000       0.37500000 </v>
   <v>      -0.37500000       0.25000000       0.37500000 </v>
   <v>      -0.31250000       0.25000000       0.37500000 </v>
   <v>       0.00000000       0.31250000       0.37500000 </v>
   <v>       0.06250000       0.31250000       0.37500000 </v>
   <v>       0.12500000       0.31250000       0.37500000 </v>
   <v>       0.18750000       0.31250000       0.37500000 </v>
   <v>       0.25000000       0.31250000       0.37500000 </v>
   <v>       0.31250000       0.31250000       0.37500000 </v>
   <v>       0.37500000       0.31250000       0.37500000 </v>
   <v>       0.43750000       0.31250000       0.37500000 </v>
   <v>       0.50000000       0.31250000       0.37500000 </v>
   <v>      -0.43750000       0.31250000       0.37500000 </v>
   <v>      -0.37500000       0.31250000       0.37500000 </v>
   <v>       0.00000000       0.37500000       0.37500000 </v>
   <v>       0.06250000       0.37500000       0.37500000 </v>
   <v>       0.12500000       0.37500000       0.37500000 </v>
   <v>       0.18750000       0.37500000       0.37500000 </v>
   <v>       0.25000000       0.37500000       0.37500000 </v>
   <v>       0.31250000       0.37500000       0.37500000 </v>
   <v>       0.37500000       0.37500000       0.37500000 </v>
   <v>       0.43750000       0.37500000       0.37500000 </v>
   <v>       0.50000000       0.37500000       0.37500000 </v>
   <v>      -0.43750000       0.37500000       0.37500000 </v>
   <v>       0.00000000       0.43750000       0.37500000 </v>
   <v>       0.06250000       0.43750000       0.37500000 </v>
   <v>       0.12500000       0.43750000       0.37500000 </v>
   <v>       0.18750000       0.43750000       0.37500000 </v>
   <v>       0.25000000       0.43750000       0.37500000 </v>
   <v>       0.31250000       0.43750000       0.37500000 </v>
   <v>       0.37500000       0.43750000       0.37500000 </v>
   <v>       0.43750000       0.43750000       0.37500000 </v>
   <v>       0.50000000       0.43750000       0.37500000 </v>
   <v>       0.00000000       0.50000000       0.37500000 </v>
   <v>       0.06250000       0.50000000       0.37500000 </v>
   <v>       0.12500000       0.50000000       0.37500000 </v>
   <v>       0.18750000       0.50000000       0.37500000 </v>
   <v>       0.25000000       0.50000000       0.37500000 </v>
   <v>       0.31250000       0.50000000       0.37500000 </v>
   <v>       0.37500000       0.50000000       0.37500000 </v>
   <v>       0.43750000       0.50000000       0.37500000 </v>
   <v>       0.00000000      -0.43750000       0.37500000 </v>
   <v>       0.06250000      -0.43750000       0.37500000 </v>
   <v>       0.12500000      -0.43750000       0.37500000 </v>
   <v>       0.18750000      -0.43750000       0.37500000 </v>
   <v>       0.25000000      -0.43750000       0.37500000 </v>
   <v>       0.31250000      -0.43750000       0.37500000 </v>
   <v>       0.37500000      -0.43750000       0.37500000 </v>
   <v>       0.00000000      -0.37500000       0.37500000 </v>
   <v>       0.06250000      -0.37500000       0.37500000 </v>
   <v>       0.12500000      -0.37500000       0.37500000 </v>
   <v>       0.18750000      -0.37500000       0.37500000 </v>
   <v>       0.25000000      -0.37500000       0.37500000 </v>
   <v>       0.31250000      -0.37500000       0.37500000 </v>
   <v>       0.00000000      -0.31250000       0.37500000 </v>
   <v>       0.06250000      -0.31250000       0.37500000 </v>
   <v>       0.12500000      -0.31250000       0.37500000 </v>
   <v>       0.18750000      -0.31250000       0.37500000 </v>
   <v>       0.25000000      -0.31250000       0.37500000 </v>
   <v>       0.00000000      -0.25000000       0.37500000 </v>
   <v>       0.06250000      -0.25000000       0.37500000 </v>
   <v>       0.12500000      -0.25000000       0.37500000 </v>
   <v>       0.18750000      -0.25000000       0.37500000 </v>
   <v>       0.00000000      -0.18750000       0.37500000 </v>
   <v>       0.06250000      -0.18750000       0.37500000 </v>
   <v>       0.12500000      -0.18750000       0.37500000 </v>
   <v>       0.00000000      -0.12500000       0.37500000 </v>
   <v>       0.06250000      -0.12500000       0.37500000 </v>
   <v>       0.00000000      -0.06250000       0.37500000 </v>
   <v>       0.00000000       0.00000000       0.43750000 </v>
   <v>       0.06250000      -0.00000000       0.43750000 </v>
   <v>       0.12500000      -0.00000000       0.43750000 </v>
   <v>       0.18750000      -0.00000000       0.43750000 </v>
   <v>       0.25000000      -0.00000000       0.43750000 </v>
   <v>       0.31250000      -0.00000000       0.43750000 </v>
   <v>       0.37500000      -0.00000000       0.43750000 </v>
   <v>       0.43750000      -0.00000000       0.43750000 </v>
   <v>       0.50000000      -0.00000000       0.43750000 </v>
   <v>      -0.43750000       0.00000000       0.43750000 </v>
   <v>      -0.37500000       0.00000000       0.43750000 </v>
   <v>      -0.31250000      -0.00000000       0.43750000 </v>
   <v>      -0.25000000       0.00000000       0.43750000 </v>
   <v>      -0.18750000       0.00000000       0.43750000 </v>
   <v>      -0.12500000       0.00000000       0.43750000 </v>
   <v>      -0.06250000       0.00000000       0.43750000 </v>
   <v>       0.00000000       0.06250000       0.43750000 </v>
   <v>       0.06250000       0.06250000       0.43750000 </v>
   <v>       0.12500000       0.06250000       0.43750000 </v>
   <v>       0.18750000       0.06250000       0.43750000 </v>
   <v>       0.25000000       0.06250000       0.43750000 </v>
   <v>       0.31250000       0.06250000       0.43750000 </v>
   <v>       0.37500000       0.06250000       0.43750000 </v>
   <v>       0.43750000       0.06250000       0.43750000 </v>
   <v>       0.50000000       0.06250000       0.43750000 </v>
   <v>      -0.43750000       0.06250000       0.43750000 </v>
   <v>      -0.37500000       0.06250000       0.43750000 </v>
   <v>      -0.31250000       0.06250000       0.43750000 </v>
   <v>      -0.25000000       0.06250000       0.43750000 </v>
   <v>      -0.18750000       0.06250000       0.43750000 </v>
   <v>      -0.12500000       0.06250000       0.43750000 </v>
   <v>       0.00000000       0.12500000       0.43750000 </v>
   <v>       0.06250000       0.12500000       0.43750000 </v>
   <v>       0.12500000       0.12500000       0.43750000 </v>
   <v>       0.18750000       0.12500000       0.43750000 </v>
   <v>       0.25000000       0.12500000       0.43750000 </v>
   <v>       0.31250000       0.12500000       0.43750000 </v>
   <v>       0.37500000       0.12500000       0.43750000 </v>
   <v>       0.43750000       0.12500000       0.43750000 </v>
   <v>       0.50000000       0.12500000       0.43750000 </v>
   <v>      -0.43750000       0.12500000       0.43750000 </v>
   <v>      -0.37500000       0.12500000       0.43750000 </v>
   <v>      -0.31250000       0.12500000       0.43750000 </v>
   <v>      -0.25000000       0.12500000       0.43750000 </v>
   <v>      -0.18750000       0.12500000       0.43750000 </v>
   <v>       0.00000000       0.18750000       0.43750000 </v>
   <v>       0.06250000       0.18750000       0.43750000 </v>
   <v>       0.12500000       0.18750000       0.43750000 </v>
   <v>       0.18750000       0.18750000       0.43750000 </v>
   <v>       0.25000000       0.18750000       0.43750000 </v>
   <v>       0.31250000       0.18750000       0.43750000 </v>
   <v>       0.37500000       0.18750000       0.43750000 </v>
   <v>       0.43750000       0.18750000       0.43750000 </v>
   <v>       0.50000000       0.18750000       0.43750000 </v>
   <v>      -0.43750000       0.18750000       0.43750000 </v>
   <v>      -0.37500000       0.18750000       0.43750000 </v>
   <v>      -0.31250000       0.18750000       0.43750000 </v>
   <v>      -0.25000000       0.18750000       0.43750000 </v>
   <v>       0.00000000       0.25000000       0.43750000 </v>
   <v>       0.06250000       0.25000000       0.43750000 </v>
   <v>       0.12500000       0.25000000       0.43750000 </v>
   <v>       0.18750000       0.25000000       0.43750000 </v>
   <v>       0.25000000       0.25000000       0.43750000 </v>
   <v>       0.31250000       0.25000000       0.43750000 </v>
   <v>       0.37500000       0.25000000       0.43750000 </v>
   <v>       0.43750000       0.25000000       0.43750000 </v>
   <v>       0.50000000       0.25000000       0.43750000 </v>
   <v>      -0.43750000       0.25000000       0.43750000 </v>
   <v>      -0.37500000       0.25000000       0.43750000 </v>
   <v>      -0.31250000       0.25000000       0.43750000 </v>
   <v>       0.00000000       0.31250000       0.43750000 </v>
   <v>       0.06250000       0.31250000       0.43750000 </v>
   <v>       0.12500000       0.31250000       0.43750000 </v>
   <v>       0.18750000       0.31250000       0.43750000 </v>
   <v>       0.25000000       0.31250000       0.43750000 </v>
   <v>       0.31250000       0.31250000       0.43750000 </v>
   <v>       0.37500000       0.31250000       0.43750000 </v>
   <v>       0.43750000       0.31250000       0.43750000 </v>
   <v>       0.50000000       0.31250000       0.43750000 </v>
   <v>      -0.43750000       0.31250000       0.43750000 </v>
   <v>      -0.37500000       0.31250000       0.43750000 </v>
   <v>       0.00000000       0.37500000       0.43750000 </v>
   <v>       0.06250000       0.37500000       0.43750000 </v>
   <v>       0.12500000       0.37500000       0.43750000 </v>
   <v>       0.18750000       0.37500000       0.43750000 </v>
   <v>       0.25000000       0.37500000       0.43750000 </v>
   <v>       0.31250000       0.37500000       0.43750000 </v>
   <v>       0.37500000       0.37500000       0.43750000 </v>
   <v>       0.43750000       0.37500000       0.43750000 </v>
   <v>       0.50000000       0.37500000       0.43750000 </v>
   <v>      -0.43750000       0.37500000       0.43750000 </v>
   <v>       0.00000000       0.43750000       0.43750000 </v>
   <v>       0.06250000       0.43750000       0.43750000 </v>
   <v>       0.12500000       0.43750000       0.43750000 </v>
   <v>       0.18750000       0.43750000       0.43750000 </v>
   <v>       0.25000000       0.43750000       0.43750000 </v>
   <v>       0.31250000       0.43750000       0.43750000 </v>
   <v>       0.37500000       0.43750000       0.43750000 </v>
   <v>       0.43750000       0.43750000       0.43750000 </v>
   <v>       0.50000000       0.43750000       0.43750000 </v>
   <v>       0.00000000       0.50000000       0.43750000 </v>
   <v>       0.06250000       0.50000000       0.43750000 </v>
   <v>       0.12500000       0.50000000       0.43750000 </v>
   <v>       0.18750000       0.50000000       0.43750000 </v>
   <v>       0.25000000       0.50000000       0.43750000 </v>
   <v>       0.31250000       0.50000000       0.43750000 </v>
   <v>       0.37500000       0.50000000       0.43750000 </v>
   <v>       0.43750000       0.50000000       0.43750000 </v>
   <v>       0.00000000      -0.43750000       0.43750000 </v>
   <v>       0.06250000      -0.43750000       0.43750000 </v>
   <v>       0.12500000      -0.43750000       0.43750000 </v>
   <v>       0.18750000      -0.43750000       0.43750000 </v>
   <v>       0.25000000      -0.43750000       0.43750000 </v>
   <v>       0.31250000      -0.43750000       0.43750000 </v>
   <v>       0.37500000      -0.43750000       0.43750000 </v>
   <v>       0.00000000      -0.37500000       0.43750000 </v>
   <v>       0.06250000      -0.37500000       0.43750000 </v>
   <v>       0.12500000      -0.37500000       0.43750000 </v>
   <v>       0.18750000      -0.37500000       0.43750000 </v>
   <v>       0.25000000      -0.37500000       0.43750000 </v>
   <v>       0.31250000      -0.37500000       0.43750000 </v>
   <v>       0.00000000      -0.31250000       0.43750000 </v>
   <v>       0.06250000      -0.31250000       0.43750000 </v>
   <v>       0.12500000      -0.31250000       0.43750000 </v>
   <v>       0.18750000      -0.31250000       0.43750000 </v>
   <v>       0.25000000      -0.31250000       0.43750000 </v>
   <v>       0.00000000      -0.25000000       0.43750000 </v>
   <v>       0.06250000      -0.25000000       0.43750000 </v>
   <v>       0.12500000      -0.25000000       0.43750000 </v>
   <v>       0.18750000      -0.25000000       0.43750000 </v>
   <v>       0.00000000      -0.18750000       0.43750000 </v>
   <v>       0.06250000      -0.18750000       0.43750000 </v>
   <v>       0.12500000      -0.18750000       0.43750000 </v>
   <v>       0.00000000      -0.12500000       0.43750000 </v>
   <v>       0.06250000      -0.12500000       0.43750000 </v>
   <v>       0.00000000      -0.06250000       0.43750000 </v>
   <v>       0.00000000       0.00000000       0.50000000 </v>
   <v>       0.06250000       0.00000000       0.50000000 </v>
   <v>       0.12500000      -0.00000000       0.50000000 </v>
   <v>       0.18750000       0.00000000       0.50000000 </v>
   <v>       0.25000000      -0.00000000       0.50000000 </v>
   <v>       0.31250000      -0.00000000       0.50000000 </v>
   <v>       0.37500000      -0.00000000       0.50000000 </v>
   <v>       0.43750000      -0.00000000       0.50000000 </v>
   <v>       0.50000000      -0.00000000       0.50000000 </v>
   <v>       0.00000000       0.06250000       0.50000000 </v>
   <v>       0.06250000       0.06250000       0.50000000 </v>
   <v>       0.12500000       0.06250000       0.50000000 </v>
   <v>       0.18750000       0.06250000       0.50000000 </v>
   <v>       0.25000000       0.06250000       0.50000000 </v>
   <v>       0.31250000       0.06250000       0.50000000 </v>
   <v>       0.37500000       0.06250000       0.50000000 </v>
   <v>       0.43750000       0.06250000       0.50000000 </v>
   <v>       0.50000000       0.06250000       0.50000000 </v>
   <v>      -0.43750000       0.06250000       0.50000000 </v>
   <v>      -0.37500000       0.06250000       0.50000000 </v>
   <v>      -0.31250000       0.06250000       0.50000000 </v>
   <v>      -0.25000000       0.06250000       0.50000000 </v>
   <v>      -0.18750000       0.06250000       0.50000000 </v>
   <v>      -0.12500000       0.06250000       0.50000000 </v>
   <v>       0.00000000       0.12500000       0.50000000 </v>
   <v>       0.06250000       0.12500000       0.50000000 </v>
   <v>       0.12500000       0.12500000       0.50000000 </v>
   <v>       0.18750000       0.12500000       0.50000000 </v>
   <v>       0.25000000       0.12500000       0.50000000 </v>
   <v>       0.31250000       0.12500000       0.50000000 </v>
   <v>       0.37500000       0.12500000       0.50000000 </v>
   <v>       0.43750000       0.12500000       0.50000000 </v>
   <v>       0.50000000       0.12500000       0.50000000 </v>
   <v>      -0.43750000       0.12500000       0.50000000 </v>
   <v>      -0.37500000       0.12500000       0.50000000 </v>
   <v>      -0.31250000       0.12500000       0.50000000 </v>
   <v>      -0.25000000       0.12500000       0.50000000 </v>
   <v>       0.00000000       0.18750000       0.50000000 </v>
   <v>       0.06250000       0.18750000       0.50000000 </v>
   <v>       0.12500000       0.18750000       0.50000000 </v>
   <v>       0.18750000       0.18750000       0.50000000 </v>
   <v>       0.25000000       0.18750000       0.50000000 </v>
   <v>       0.31250000       0.18750000       0.50000000 </v>
   <v>       0.37500000       0.18750000       0.50000000 </v>
   <v>       0.43750000       0.18750000       0.50000000 </v>
   <v>       0.50000000       0.18750000       0.50000000 </v>
   <v>      -0.43750000       0.18750000       0.50000000 </v>
   <v>      -0.37500000       0.18750000       0.50000000 </v>
   <v>       0.00000000       0.25000000       0.50000000 </v>
   <v>       0.06250000       0.25000000       0.50000000 </v>
   <v>       0.12500000       0.25000000       0.50000000 </v>
   <v>       0.18750000       0.25000000       0.50000000 </v>
   <v>       0.25000000       0.25000000       0.50000000 </v>
   <v>       0.31250000       0.25000000       0.50000000 </v>
   <v>       0.37500000       0.25000000       0.50000000 </v>
   <v>       0.43750000       0.25000000       0.50000000 </v>
   <v>       0.50000000       0.25000000       0.50000000 </v>
   <v>       0.00000000       0.31250000       0.50000000 </v>
   <v>       0.06250000       0.31250000       0.50000000 </v>
   <v>       0.12500000       0.31250000       0.50000000 </v>
   <v>       0.18750000       0.31250000       0.50000000 </v>
   <v>       0.25000000       0.31250000       0.50000000 </v>
   <v>       0.31250000       0.31250000       0.50000000 </v>
   <v>       0.37500000       0.31250000       0.50000000 </v>
   <v>       0.00000000       0.37500000       0.50000000 </v>
   <v>       0.06250000       0.37500000       0.50000000 </v>
   <v>       0.12500000       0.37500000       0.50000000 </v>
   <v>       0.18750000       0.37500000       0.50000000 </v>
   <v>       0.25000000       0.37500000       0.50000000 </v>
   <v>       0.00000000       0.43750000       0.50000000 </v>
   <v>       0.06250000       0.43750000       0.50000000 </v>
   <v>       0.12500000       0.43750000       0.50000000 </v>
   <v>       0.00000000       0.50000000       0.50000000 </v>
  </varray>
  <varray name="weights" >
   <v>       0.00024414 </v>
   <v>       0.00097656 </v>
   <v>       0.00097656 </v>
   <v>       0.00097656 </v>
   <v>       0.00097656 </v>
   <v>       0.00097656 </v>
   <v>       0.00097656 </v>
   <v>       0.00097656 </v>
   <v>       0.00048828 </v>
   <v>       0.00048828 </v>
   <v>       0.00097656 </v>
   <v>       0.00097656 </v>
   <v>       0.00097656 </v>
   <v>       0.00097656 </v>
   <v>       0.00097656 </v>
   <v>       0.00097656 </v>
   <v>       0.00097656 </v>
   <v>       0.00097656 </v>
   <v>       0.00097656 </v>
   <v>       0.00097656 </v>
   <v>       0.00097656 </v>
   <v>       0.00097656 </v>
   <v>       0.00097656 </v>
   <v>       0.00048828 </v>
   <v>       0.00048828 </v>
   <v>       0.00097656 </v>
   <v>       0.00097656 </v>
   <v>       0.00097656 </v>
   <v>       0.00097656 </v>
   <v>       0.00097656 </v>
   <v>       0.00097656 </v>
   <v>       0.00097656 </v>
   <v>       0.00097656 </v>
   <v>       0.00097656 </v>
   <v>       0.00097656 </v>
   <v>       0.00097656 </v>
   <v>       0.00048828 </v>
   <v>       0.00048828 </v>
   <v>       0.00097656 </v>
   <v>       0.00097656 </v>
   <v>       0.00097656 </v>
   <v>       0.00097656 </v>
   <v>       0.00097656 </v>
   <v>       0.00097656 </v>
   <v>       0.00097656 </v>
   <v>       0.00097656 </v>
   <v>       0.00097656 </v>
   <v>       0.00048828 </v>
   <v>       0.00048828 </v>
   <v>       0.00097656 </v>
   <v>       0.00097656 </v>
   <v>       0.00097656 </v>
   <v>       0.00097656 </v>
   <v>       0.00097656 </v>
   <v>       0.00097656 </v>
   <v>       0.00097656 </v>
   <v>       0.00048828 </v>
   <v>       0.00048828 </v>
   <v>       0.00097656 </v>
   <v>       0.00097656 </v>
   <v>       0.00097656 </v>
   <v>       0.00097656 </v>
   <v>       0.00097656 </v>
   <v>       0.00048828 </v>
   <v>       0.00048828 </v>
   <v>       0.00097656 </v>
   <v>       0.00097656 </v>
   <v>       0.00097656 </v>
   <v>       0.00048828 </v>
   <v>       0.00048828 </v>
   <v>       0.00097656 </v>
   <v>       0.00048828 </v>
   <v>       0.00024414 </v>
   <v>       0.00048828 </v>
   <v>       0.00097656 </v>
   <v>       0.00097656 </v>
   <v>       0.00097656 </v>
   <v>       0.00097656 </v>
   <v>       0.00097656 </v>
   <v>       0.00097656 </v>
   <v>       0.00097656 </v>
   <v>       0.00097656 </v>
   <v>       0.00097656 </v>
   <v>       0.00097656 </v>
   <v>       0.00097656 </v>
   <v>       0.00097656 </v>
   <v>       0.00097656 </v>
   <v>       0.00097656 </v>
   <v>       0.00097656 </v>
   <v>       0.00048828 </v>
   <v>       0.00097656 </v>
   <v>       0.00097656 </v>
   <v>       0.00097656 </v>
   <v>       0.00097656 </v>
   <v>       0.00097656 </v>
   <v>       0.00097656 </v>
   <v>       0.00097656 </v>
   <v>       0.00097656 </v>
   <v>       0.00097656 </v>
   <v>       0.00097656 </v>
   <v>       0.00097656 </v>
   <v>       0.00097656 </v>
   <v>       0.00097656 </v>
   <v>       0.00097656 </v>
   <v>       0.00048828 </v>
   <v>       0.00097656 </v>
   <v>       0.00097656 </v>
   <v>       0.00097656 </v>
   <v>       0.00097656 </v>
   <v>       0.00097656 </v>
   <v>       0.00097656 </v>
   <v>       0.00097656 </v>
   <v>       0.00097656 </v>
   <v>       0.00097656 </v>
   <v>       0.00097656 </v>
   <v>       0.00097656 </v>
   <v>       0.00097656 </v>
   <v>       0.00097656 </v>
   <v>       0.00048828 </v>
   <v>       0.00097656 </v>
   <v>       0.00097656 </v>
   <v>       0.00097656 </v>
   <v>       0.00097656 </v>
   <v>       0.00097656 </v>
   <v>       0.00097656 </v>
   <v>       0.00097656 </v>
   <v>       0.00097656 </v>
   <v>       0.00097656 </v>
   <v>       0.00097656 </v>
   <v>       0.00097656 </v>
   <v>       0.00097656 </v>
   <v>       0.00048828 </v>
   <v>       0.00097656 </v>
   <v>       0.00097656 </v>
   <v>       0.00097656 </v>
   <v>       0.00097656 </v>
   <v>       0.00097656 </v>
   <v>       0.00097656 </v>
   <v>       0.00097656 </v>
   <v>       0.00097656 </v>
   <v>       0.00097656 </v>
   <v>       0.00097656 </v>
   <v>       0.00097656 </v>
   <v>       0.00048828 </v>
   <v>       0.00097656 </v>
   <v>       0.00097656 </v>
   <v>       0.00097656 </v>
   <v>       0.00097656 </v>
   <v>       0.00097656 </v>
   <v>       0.00097656 </v>
   <v>       0.00097656 </v>
   <v>       0.00097656 </v>
   <v>       0.00097656 </v>
   <v>       0.00097656 </v>
   <v>       0.00048828 </v>
   <v>       0.00097656 </v>
   <v>       0.00097656 </v>
   <v>       0.00097656 </v>
   <v>       0.00097656 </v>
   <v>       0.00097656 </v>
   <v>       0.00097656 </v>
   <v>       0.00097656 </v>
   <v>       0.00097656 </v>
   <v>       0.00097656 </v>
   <v>       0.00048828 </v>
   <v>       0.00097656 </v>
   <v>       0.00097656 </v>
   <v>       0.00097656 </v>
   <v>       0.00097656 </v>
   <v>       0.00097656 </v>
   <v>       0.00097656 </v>
   <v>       0.00097656 </v>
   <v>       0.00097656 </v>
   <v>       0.00048828 </v>
   <v>       0.00097656 </v>
   <v>       0.00097656 </v>
   <v>       0.00097656 </v>
   <v>       0.00097656 </v>
   <v>       0.00097656 </v>
   <v>       0.00097656 </v>
   <v>       0.00097656 </v>
   <v>       0.00048828 </v>
   <v>       0.00097656 </v>
   <v>       0.00097656 </v>
   <v>       0.00097656 </v>
   <v>       0.00097656 </v>
   <v>       0.00097656 </v>
   <v>       0.00097656 </v>
   <v>       0.00048828 </v>
   <v>       0.00097656 </v>
   <v>       0.00097656 </v>
   <v>       0.00097656 </v>
   <v>       0.00097656 </v>
   <v>       0.00097656 </v>
   <v>       0.00048828 </v>
   <v>       0.00097656 </v>
   <v>       0.00097656 </v>
   <v>       0.00097656 </v>
   <v>       0.00097656 </v>
   <v>       0.00048828 </v>
   <v>       0.00097656 </v>
   <v>       0.00097656 </v>
   <v>       0.00097656 </v>
   <v>       0.00048828 </v>
   <v>       0.00097656 </v>
   <v>       0.00097656 </v>
   <v>       0.00048828 </v>
   <v>       0.00097656 </v>
   <v>       0.00048828 </v>
   <v>       0.00048828 </v>
   <v>       0.00097656 </v>
   <v>       0.00097656 </v>
   <v>       0.00097656 </v>
   <v>       0.00097656 </v>
   <v>       0.00097656 </v>
   <v>       0.00097656 </v>
   <v>       0.00097656 </v>
   <v>       0.00097656 </v>
   <v>       0.00097656 </v>
   <v>       0.00097656 </v>
   <v>       0.00097656 </v>
   <v>       0.00097656 </v>
   <v>       0.00097656 </v>
   <v>       0.00097656 </v>
   <v>       0.00097656 </v>
   <v>       0.00048828 </v>
   <v>       0.00097656 </v>
   <v>       0.00097656 </v>
   <v>       0.00097656 </v>
   <v>       0.00097656 </v>
   <v>       0.00097656 </v>
   <v>       0.00097656 </v>
   <v>       0.00097656 </v>
   <v>       0.00097656 </v>
   <v>       0.00097656 </v>
   <v>       0.00097656 </v>
   <v>       0.00097656 </v>
   <v>       0.00097656 </v>
   <v>       0.00097656 </v>
   <v>       0.00097656 </v>
   <v>       0.00048828 </v>
   <v>       0.00097656 </v>
   <v>       0.00097656 </v>
   <v>       0.00097656 </v>
   <v>       0.00097656 </v>
   <v>       0.00097656 </v>
   <v>       0.00097656 </v>
   <v>       0.00097656 </v>
   <v>       0.00097656 </v>
   <v>       0.00097656 </v>
   <v>       0.00097656 </v>
   <v>       0.00097656 </v>
   <v>       0.00097656 </v>
   <v>       0.00097656 </v>
   <v>       0.00048828 </v>
   <v>       0.00097656 </v>
   <v>       0.00097656 </v>
   <v>       0.00097656 </v>
   <v>       0.00097656 </v>
   <v>       0.00097656 </v>
   <v>       0.00097656 </v>
   <v>       0.00097656 </v>
   <v>       0.00097656 </v>
   <v>       0.00097656 </v>
   <v>       0.00097656 </v>
   <v>       0.00097656 </v>
   <v>       0.00097656 </v>
   <v>       0.00048828 </v>
   <v>       0.00097656 </v>
   <v>       0.00097656 </v>
   <v>       0.00097656 </v>
   <v>       0.00097656 </v>
   <v>       0.00097656 </v>
   <v>       0.00097656 </v>
   <v>       0.00097656 </v>
   <v>       0.00097656 </v>
   <v>       0.00097656 </v>
   <v>       0.00097656 </v>
[...]
       <r>    9.5502    0.0000 </r>
       <r>    9.9167    0.0000 </r>
       <r>   10.8400    0.0000 </r>
       <r>   11.9214    0.0000 </r>
       <r>   13.5687    0.0000 </r>
       <r>   14.5015    0.0000 </r>
       <r>   17.0302    0.0000 </r>
      </set>
      <set comment="kpoint 1060">
       <r>   -3.6639    1.0000 </r>
       <r>    0.8311    1.0000 </r>
       <r>    1.4662    1.0000 </r>
       <r>    2.1930    1.0000 </r>
       <r>    4.6106    1.0000 </r>
       <r>    9.0446    0.0000 </r>
       <r>    9.8465    0.0000 </r>
       <r>   10.3355    0.0000 </r>
       <r>   11.4582    0.0000 </r>
       <r>   14.0582    0.0000 </r>
       <r>   15.0748    0.0000 </r>
       <r>   17.7328    0.0000 </r>
      </set>
      <set comment="kpoint 1061">
       <r>   -3.9421    1.0000 </r>
       <r>    0.7995    1.0000 </r>
       <r>    1.6971    1.0000 </r>
       <r>    2.6402    1.0000 </r>
       <r>    5.1142    1.0000 </r>
       <r>    8.5352    0.0000 </r>
       <r>    9.6828    0.0000 </r>
       <r>    9.8710    0.0000 </r>
       <r>   10.7360    0.0000 </r>
       <r>   14.3892    0.0000 </r>
       <r>   15.6491    0.0000 </r>
       <r>   17.5297    0.0000 </r>
      </set>
      <set comment="kpoint 1062">
       <r>   -4.1622    1.0000 </r>
       <r>    0.2195    1.0000 </r>
       <r>    2.5872    1.0000 </r>
       <r>    3.1944    1.0000 </r>
       <r>    5.6671    1.0000 </r>
       <r>    8.0878    0.0000 </r>
       <r>    9.1888    0.0000 </r>
       <r>    9.7082    0.0000 </r>
       <r>    9.8670    0.0000 </r>
       <r>   14.4024    0.0000 </r>
       <r>   16.1492    0.0000 </r>
       <r>   17.3446    0.0000 </r>
      </set>
      <set comment="kpoint 1063">
       <r>   -4.2645    1.0000 </r>
       <r>   -0.0375    1.0000 </r>
       <r>    2.9924    1.0000 </r>
       <r>    3.6065    1.0000 </r>
       <r>    5.9368    1.0000 </r>
       <r>    7.9449    0.0000 </r>
       <r>    8.8377    0.0000 </r>
       <r>    9.4173    0.0000 </r>
       <r>    9.6321    0.0000 </r>
       <r>   14.2399    0.0000 </r>
       <r>   16.1366    0.0000 </r>
       <r>   18.2589    0.0000 </r>
      </set>
      <set comment="kpoint 1064">
       <r>   -4.1407    1.0000 </r>
       <r>    0.3135    1.0000 </r>
       <r>    2.3888    1.0000 </r>
       <r>    3.1664    1.0000 </r>
       <r>    5.5439    1.0000 </r>
       <r>    8.2095    0.0000 </r>
       <r>    9.2636    0.0000 </r>
       <r>    9.6892    0.0000 </r>
       <r>   10.0361    0.0000 </r>
       <r>   14.3806    0.0000 </r>
       <r>   15.8452    0.0000 </r>
       <r>   18.0019    0.0000 </r>
      </set>
      <set comment="kpoint 1065">
       <r>   -3.9513    1.0000 </r>
       <r>    0.8063    1.0000 </r>
       <r>    1.6787    1.0000 </r>
       <r>    2.6645    1.0000 </r>
       <r>    5.0787    1.0000 </r>
       <r>    8.5895    0.0000 </r>
       <r>    9.6976    0.0000 </r>
       <r>    9.7951    0.0000 </r>
       <r>   10.7939    0.0000 </r>
       <r>   14.4024    0.0000 </r>
       <r>   15.6584    0.0000 </r>
       <r>   17.5142    0.0000 </r>
      </set>
      <set comment="kpoint 1066">
       <r>   -3.6961    1.0000 </r>
       <r>    0.9138    1.0000 </r>
       <r>    1.3879    1.0000 </r>
       <r>    2.2374    1.0000 </r>
       <r>    4.6184    1.0000 </r>
       <r>    9.0574    0.0000 </r>
       <r>    9.8288    0.0000 </r>
       <r>   10.1994    0.0000 </r>
       <r>   11.5049    0.0000 </r>
       <r>   14.2084    0.0000 </r>
       <r>   15.5065    0.0000 </r>
       <r>   17.3398    0.0000 </r>
      </set>
      <set comment="kpoint 1067">
       <r>   -3.3816    1.0000 </r>
       <r>    0.1659    1.0000 </r>
       <r>    1.7126    1.0000 </r>
       <r>    2.2110    1.0000 </r>
       <r>    4.2110    1.0000 </r>
       <r>    9.5628    0.0000 </r>
       <r>    9.8982    0.0000 </r>
       <r>   10.6377    0.0000 </r>
       <r>   11.9741    0.0000 </r>
       <r>   13.7729    0.0000 </r>
       <r>   15.3195    0.0000 </r>
       <r>   17.3396    0.0000 </r>
      </set>
      <set comment="kpoint 1068">
       <r>   -3.0351    1.0000 </r>
       <r>   -0.4949    1.0000 </r>
       <r>    1.5491    1.0000 </r>
       <r>    2.7502    1.0000 </r>
       <r>    3.8718    1.0000 </r>
       <r>    9.8703    0.0000 </r>
       <r>   10.1086    0.0000 </r>
       <r>   11.0363    0.0000 </r>
       <r>   12.1246    0.0000 </r>
       <r>   13.2270    0.0000 </r>
       <r>   15.1165    0.0000 </r>
       <r>   16.0176    0.0000 </r>
      </set>
      <set comment="kpoint 1069">
       <r>   -2.7542    1.0000 </r>
       <r>   -0.9391    1.0000 </r>
       <r>    1.4435    1.0000 </r>
       <r>    3.2038    1.0000 </r>
       <r>    3.5931    1.0000 </r>
       <r>    9.8883    0.0000 </r>
       <r>   10.4306    0.0000 </r>
       <r>   11.3330    0.0000 </r>
       <r>   12.0517    0.0000 </r>
       <r>   12.8362    0.0000 </r>
       <r>   14.9867    0.0000 </r>
       <r>   15.6832    0.0000 </r>
      </set>
      <set comment="kpoint 1070">
       <r>   -2.7517    1.0000 </r>
       <r>   -0.9392    1.0000 </r>
       <r>    1.4516    1.0000 </r>
       <r>    3.1363    1.0000 </r>
       <r>    3.6544    1.0000 </r>
       <r>    9.8890    0.0000 </r>
       <r>   10.4181    0.0000 </r>
       <r>   11.3784    0.0000 </r>
       <r>   12.0015    0.0000 </r>
       <r>   12.8405    0.0000 </r>
       <r>   15.0052    0.0000 </r>
       <r>   15.6588    0.0000 </r>
      </set>
      <set comment="kpoint 1071">
       <r>   -3.0290    1.0000 </r>
       <r>   -0.4935    1.0000 </r>
       <r>    1.5786    1.0000 </r>
       <r>    2.6625    1.0000 </r>
       <r>    3.9351    1.0000 </r>
       <r>    9.8620    0.0000 </r>
       <r>   10.0928    0.0000 </r>
       <r>   11.0962    0.0000 </r>
       <r>   12.0681    0.0000 </r>
       <r>   13.2017    0.0000 </r>
       <r>   15.1867    0.0000 </r>
       <r>   15.9357    0.0000 </r>
      </set>
      <set comment="kpoint 1072">
       <r>   -3.3735    1.0000 </r>
       <r>    0.1708    1.0000 </r>
       <r>    1.8234    1.0000 </r>
       <r>    2.0551    1.0000 </r>
       <r>    4.2629    1.0000 </r>
       <r>    9.5173    0.0000 </r>
       <r>    9.9125    0.0000 </r>
       <r>   10.6916    0.0000 </r>
       <r>   11.9280    0.0000 </r>
       <r>   13.7062    0.0000 </r>
       <r>   15.4334    0.0000 </r>
       <r>   16.5395    0.0000 </r>
      </set>
      <set comment="kpoint 1073">
       <r>   -3.6870    1.0000 </r>
       <r>    0.9236    1.0000 </r>
       <r>    1.4073    1.0000 </r>
       <r>    2.1831    1.0000 </r>
       <r>    4.6606    1.0000 </r>
       <r>    9.0071    0.0000 </r>
       <r>    9.8351    0.0000 </r>
       <r>   10.2572    0.0000 </r>
       <r>   11.4540    0.0000 </r>
       <r>   14.1413    0.0000 </r>
       <r>   15.5880    0.0000 </r>
       <r>   17.2996    0.0000 </r>
      </set>
      <set comment="kpoint 1074">
       <r>   -4.0507    1.0000 </r>
       <r>    0.5600    1.0000 </r>
       <r>    1.9739    1.0000 </r>
       <r>    2.9652    1.0000 </r>
       <r>    5.2992    1.0000 </r>
       <r>    8.3928    0.0000 </r>
       <r>    9.5451    0.0000 </r>
       <r>    9.7306    0.0000 </r>
       <r>   10.3620    0.0000 </r>
       <r>   14.3386    0.0000 </r>
       <r>   15.4452    0.0000 </r>
       <r>   19.0737    0.0000 </r>
      </set>
      <set comment="kpoint 1075">
       <r>   -3.8962    1.0000 </r>
       <r>    0.9420    1.0000 </r>
       <r>    1.4463    1.0000 </r>
       <r>    2.6175    1.0000 </r>
       <r>    4.9541    1.0000 </r>
       <r>    8.6917    0.0000 </r>
       <r>    9.7664    0.0000 </r>
       <r>    9.9283    0.0000 </r>
       <r>   10.8962    0.0000 </r>
       <r>   14.2377    0.0000 </r>
       <r>   15.1950    0.0000 </r>
       <r>   18.8592    0.0000 </r>
      </set>
      <set comment="kpoint 1076">
       <r>   -3.6740    1.0000 </r>
       <r>    0.8037    1.0000 </r>
       <r>    1.4675    1.0000 </r>
       <r>    2.2354    1.0000 </r>
       <r>    4.5749    1.0000 </r>
       <r>    9.0942    0.0000 </r>
       <r>    9.8350    0.0000 </r>
       <r>   10.2885    0.0000 </r>
       <r>   11.5191    0.0000 </r>
       <r>   14.0727    0.0000 </r>
       <r>   15.1353    0.0000 </r>
       <r>   18.0723    0.0000 </r>
      </set>
      <set comment="kpoint 1077">
       <r>   -3.3830    1.0000 </r>
       <r>    0.1574    1.0000 </r>
       <r>    1.7302    1.0000 </r>
       <r>    2.1921    1.0000 </r>
       <r>    4.2180    1.0000 </r>
       <r>    9.5655    0.0000 </r>
       <r>    9.8956    0.0000 </r>
       <r>   10.6462    0.0000 </r>
       <r>   11.9758    0.0000 </r>
       <r>   13.7596    0.0000 </r>
       <r>   15.4378    0.0000 </r>
       <r>   16.5710    0.0000 </r>
      </set>
      <set comment="kpoint 1078">
       <r>   -3.0290    1.0000 </r>
       <r>   -0.4936    1.0000 </r>
       <r>    1.5173    1.0000 </r>
       <r>    2.7223    1.0000 </r>
       <r>    3.9182    1.0000 </r>
       <r>    9.8548    0.0000 </r>
       <r>   10.1493    0.0000 </r>
       <r>   10.9903    0.0000 </r>
       <r>   12.1178    0.0000 </r>
       <r>   13.2530    0.0000 </r>
       <r>   15.5820    0.0000 </r>
       <r>   17.2200    0.0000 </r>
      </set>
      <set comment="kpoint 1079">
       <r>   -2.6474    1.0000 </r>
       <r>   -1.0702    1.0000 </r>
       <r>    1.3616    1.0000 </r>
       <r>    3.2081    1.0000 </r>
       <r>    3.6793    1.0000 </r>
       <r>    9.8585    0.0000 </r>
       <r>   10.6368    0.0000 </r>
       <r>   11.2806    0.0000 </r>
       <r>   12.0473    0.0000 </r>
       <r>   12.6870    0.0000 </r>
       <r>   15.0177    0.0000 </r>
       <r>   16.5485    0.0000 </r>
      </set>
      <set comment="kpoint 1080">
       <r>   -2.4221    1.0000 </r>
       <r>   -1.3614    1.0000 </r>
       <r>    1.3124    1.0000 </r>
       <r>    3.4488    1.0000 </r>
       <r>    3.5386    1.0000 </r>
       <r>    9.8489    0.0000 </r>
       <r>   10.8886    0.0000 </r>
       <r>   11.4515    0.0000 </r>
       <r>   11.9132    0.0000 </r>
       <r>   12.4159    0.0000 </r>
       <r>   14.8359    0.0000 </r>
       <r>   16.5573    0.0000 </r>
      </set>
      <set comment="kpoint 1081">
       <r>   -2.6422    1.0000 </r>
       <r>   -1.0689    1.0000 </r>
       <r>    1.3742    1.0000 </r>
       <r>    3.1238    1.0000 </r>
       <r>    3.7535    1.0000 </r>
       <r>    9.8607    0.0000 </r>
       <r>   10.6058    0.0000 </r>
       <r>   11.3637    0.0000 </r>
       <r>   11.9541    0.0000 </r>
       <r>   12.7036    0.0000 </r>
       <r>   15.0191    0.0000 </r>
       <r>   16.5140    0.0000 </r>
      </set>
      <set comment="kpoint 1082">
       <r>   -3.0211    1.0000 </r>
       <r>   -0.4877    1.0000 </r>
       <r>    1.5467    1.0000 </r>
       <r>    2.6382    1.0000 </r>
       <r>    3.9761    1.0000 </r>
       <r>    9.8474    0.0000 </r>
       <r>   10.1284    0.0000 </r>
       <r>   11.0445    0.0000 </r>
       <r>   12.0665    0.0000 </r>
       <r>   13.2216    0.0000 </r>
       <r>   15.5841    0.0000 </r>
       <r>   16.1315    0.0000 </r>
      </set>
      <set comment="kpoint 1083">
       <r>   -3.7814    1.0000 </r>
       <r>    0.9827    1.0000 </r>
       <r>    1.3033    1.0000 </r>
       <r>    2.4593    1.0000 </r>
       <r>    4.7292    1.0000 </r>
       <r>    8.8923    0.0000 </r>
       <r>    9.8081    0.0000 </r>
       <r>   10.2323    0.0000 </r>
       <r>   11.1391    0.0000 </r>
       <r>   13.9877    0.0000 </r>
       <r>   14.8001    0.0000 </r>
       <r>   19.7172    0.0000 </r>
      </set>
      <set comment="kpoint 1084">
       <r>   -3.6026    1.0000 </r>
       <r>    0.5549    1.0000 </r>
       <r>    1.6595    1.0000 </r>
       <r>    2.2035    1.0000 </r>
       <r>    4.4466    1.0000 </r>
       <r>    9.1950    0.0000 </r>
       <r>    9.8533    0.0000 </r>
       <r>   10.5456    0.0000 </r>
       <r>   11.5617    0.0000 </r>
       <r>   13.7691    0.0000 </r>
       <r>   14.5439    0.0000 </r>
       <r>   19.1517    0.0000 </r>
      </set>
      <set comment="kpoint 1085">
       <r>   -3.3554    1.0000 </r>
       <r>    0.0434    1.0000 </r>
       <r>    1.8201    1.0000 </r>
       <r>    2.2182    1.0000 </r>
       <r>    4.1565    1.0000 </r>
       <r>    9.5864    0.0000 </r>
       <r>    9.8959    0.0000 </r>
       <r>   10.8165    0.0000 </r>
       <r>   11.9732    0.0000 </r>
       <r>   13.5966    0.0000 </r>
       <r>   14.5920    0.0000 </r>
       <r>   16.9582    0.0000 </r>
      </set>
      <set comment="kpoint 1086">
       <r>   -3.0367    1.0000 </r>
       <r>   -0.5094    1.0000 </r>
       <r>    1.5636    1.0000 </r>
       <r>    2.7159    1.0000 </r>
       <r>    3.9011    1.0000 </r>
       <r>    9.8645    0.0000 </r>
       <r>   10.1033    0.0000 </r>
       <r>   11.0745    0.0000 </r>
       <r>   12.0970    0.0000 </r>
       <r>   13.2580    0.0000 </r>
       <r>   15.2965    0.0000 </r>
       <r>   15.8422    0.0000 </r>
      </set>
      <set comment="kpoint 1087">
       <r>   -2.6476    1.0000 </r>
       <r>   -1.0766    1.0000 </r>
       <r>    1.3643    1.0000 </r>
       <r>    3.1802    1.0000 </r>
       <r>    3.7081    1.0000 </r>
       <r>    9.8557    0.0000 </r>
       <r>   10.6229    0.0000 </r>
       <r>   11.3291    0.0000 </r>
       <r>   11.9955    0.0000 </r>
       <r>   12.7302    0.0000 </r>
       <r>   15.0243    0.0000 </r>
       <r>   16.5555    0.0000 </r>
      </set>
      <set comment="kpoint 1088">
       <r>   -2.2068    1.0000 </r>
       <r>   -1.6129    1.0000 </r>
       <r>    1.2629    1.0000 </r>
       <r>    3.4756    1.0000 </r>
       <r>    3.5918    1.0000 </r>
       <r>    9.8272    0.0000 </r>
       <r>   11.1696    0.0000 </r>
       <r>   11.4947    0.0000 </r>
       <r>   11.8757    0.0000 </r>
       <r>   12.1400    0.0000 </r>
       <r>   14.6345    0.0000 </r>
       <r>   18.1667    0.0000 </r>
      </set>
      <set comment="kpoint 1089">
       <r>   -2.2045    1.0000 </r>
       <r>   -1.6110    1.0000 </r>
       <r>    1.2665    1.0000 </r>
       <r>    3.4190    1.0000 </r>
       <r>    3.6447    1.0000 </r>
       <r>    9.8291    0.0000 </r>
       <r>   11.1435    0.0000 </r>
       <r>   11.6646    0.0000 </r>
       <r>   11.6789    0.0000 </r>
       <r>   12.1773    0.0000 </r>
       <r>   14.6338    0.0000 </r>
       <r>   18.0750    0.0000 </r>
      </set>
      <set comment="kpoint 1090">
       <r>   -3.4779    1.0000 </r>
       <r>    0.2315    1.0000 </r>
       <r>    1.9463    1.0000 </r>
       <r>    2.0944    1.0000 </r>
       <r>    4.2551    1.0000 </r>
       <r>    9.3727    0.0000 </r>
       <r>    9.8803    0.0000 </r>
       <r>   10.8911    0.0000 </r>
       <r>   11.7010    0.0000 </r>
       <r>   13.4230    0.0000 </r>
       <r>   14.1341    0.0000 </r>
       <r>   18.4114    0.0000 </r>
      </set>
      <set comment="kpoint 1091">
       <r>   -3.2958    1.0000 </r>
       <r>   -0.1357    1.0000 </r>
       <r>    1.8963    1.0000 </r>
       <r>    2.3198    1.0000 </r>
       <r>    4.0365    1.0000 </r>
       <r>    9.6350    0.0000 </r>
       <r>    9.9060    0.0000 </r>
       <r>   11.1461    0.0000 </r>
       <r>   11.9774    0.0000 </r>
       <r>   13.2718    0.0000 </r>
       <r>   13.8821    0.0000 </r>
       <r>   17.5817    0.0000 </r>
      </set>
      <set comment="kpoint 1092">
       <r>   -3.0538    1.0000 </r>
       <r>   -0.5355    1.0000 </r>
       <r>    1.6641    1.0000 </r>
       <r>    2.7331    1.0000 </r>
       <r>    3.8304    1.0000 </r>
       <r>    9.8901    0.0000 </r>
       <r>   10.0046    0.0000 </r>
       <r>   11.2944    0.0000 </r>
       <r>   12.0749    0.0000 </r>
       <r>   13.2389    0.0000 </r>
       <r>   14.1528    0.0000 </r>
       <r>   16.4456    0.0000 </r>
      </set>
      <set comment="kpoint 1093">
       <r>   -2.7553    1.0000 </r>
       <r>   -0.9581    1.0000 </r>
       <r>    1.4532    1.0000 </r>
       <r>    3.1280    1.0000 </r>
       <r>    3.6701    1.0000 </r>
       <r>    9.8788    0.0000 </r>
       <r>   10.4137    0.0000 </r>
       <r>   11.4301    0.0000 </r>
       <r>   11.9523    0.0000 </r>
       <r>   12.9274    0.0000 </r>
       <r>   15.1939    0.0000 </r>
       <r>   15.4642    0.0000 </r>
      </set>
      <set comment="kpoint 1094">
       <r>   -2.4229    1.0000 </r>
       <r>   -1.3714    1.0000 </r>
       <r>    1.3115    1.0000 </r>
       <r>    3.4012    1.0000 </r>
       <r>    3.5910    1.0000 </r>
       <r>    9.8438    0.0000 </r>
       <r>   10.8627    0.0000 </r>
       <r>   11.5890    0.0000 </r>
       <r>   11.7724    0.0000 </r>
       <r>   12.4898    0.0000 </r>
       <r>   14.8369    0.0000 </r>
       <r>   16.5672    0.0000 </r>
      </set>
      <set comment="kpoint 1095">
       <r>   -3.2008    1.0000 </r>
       <r>   -0.3428    1.0000 </r>
       <r>    1.8741    1.0000 </r>
       <r>    2.5191    1.0000 </r>
       <r>    3.8853    1.0000 </r>
       <r>    9.7345    0.0000 </r>
       <r>    9.9208    0.0000 </r>
       <r>   11.5413    0.0000 </r>
       <r>   12.0340    0.0000 </r>
       <r>   12.8608    0.0000 </r>
       <r>   13.5414    0.0000 </r>
       <r>   17.8378    0.0000 </r>
      </set>
      <set comment="kpoint 1096">
       <r>   -3.0704    1.0000 </r>
       <r>   -0.5583    1.0000 </r>
       <r>    1.7612    1.0000 </r>
       <r>    2.7663    1.0000 </r>
       <r>    3.7451    1.0000 </r>
       <r>    9.9003    0.0000 </r>
       <r>    9.9292    0.0000 </r>
       <r>   11.6706    0.0000 </r>
       <r>   12.0627    0.0000 </r>
       <r>   13.0260    0.0000 </r>
       <r>   13.3545    0.0000 </r>
       <r>   17.2121    0.0000 </r>
      </set>
      <set comment="kpoint 1097">
       <r>   -2.9132    1.0000 </r>
       <r>   -0.7702    1.0000 </r>
       <r>    1.6022    1.0000 </r>
       <r>    2.9921    1.0000 </r>
       <r>    3.6631    1.0000 </r>
       <r>    9.9082    0.0000 </r>
       <r>   10.1438    0.0000 </r>
       <r>   11.5669    0.0000 </r>
       <r>   11.9709    0.0000 </r>
       <r>   13.1268    0.0000 </r>
       <r>   13.9829    0.0000 </r>
       <r>   16.2623    0.0000 </r>
      </set>
      <set comment="kpoint 1098">
       <r>   -3.0771    1.0000 </r>
       <r>   -0.5671    1.0000 </r>
       <r>    1.8005    1.0000 </r>
       <r>    2.7855    1.0000 </r>
       <r>    3.7049    1.0000 </r>
       <r>    9.8716    0.0000 </r>
       <r>    9.9326    0.0000 </r>
       <r>   12.0231    0.0000 </r>
       <r>   12.1436    0.0000 </r>
       <r>   12.4334    0.0000 </r>
       <r>   13.2898    0.0000 </r>
       <r>   17.6294    0.0000 </r>
      </set>
     </set>
    </set>
   </array>
  </eigenvalues>
  <separator name="orbital magnetization" >
   <v name="MAGDIPOLOUT">      0.00000000      0.00000000      0.00000000</v>
  </separator>
 </calculation>
 <structure name="finalpos" >
  <crystal>
   <varray name="basis" >
    <v>       3.03293523       0.00000000       0.00000000 </v>
    <v>      -1.51646762       2.62659896      -0.07879797 </v>
    <v>       0.00000000      -0.09677069       3.03214814 </v>
   </varray>
   <i name="volume">     24.13188831 </i>
   <varray name="rec_basis" >
    <v>       0.32971360       0.19054267       0.00608115 </v>
    <v>       0.00000000       0.38108534       0.01216230 </v>
    <v>       0.00000000       0.00990346       0.33011526 </v>
   </varray>
  </crystal>
  <varray name="positions" >
   <v>       0.00000000       0.00000000      -0.00000000 </v>
   <v>       0.33354173       0.66708347       0.50006814 </v>
   <v>       0.66645827       0.33291653       0.49993186 </v>
  </varray>
 </structure>
</modeling>
