unknown system                          
           1
     3.032935    0.000000    0.000000
    -1.516468    2.626599   -0.078798
     0.000000   -0.096771    3.032148
   Ti   B 
   1   2
Direct configuration=     1
   0.00000000  0.00000000  0.00000000
   0.33333333  0.66666667  0.50000000
   0.66666667  0.33333333  0.50000000
Direct configuration=     2
   0.00000000  0.00000000  0.00000000
   0.33364235  0.66728469  0.50009209
   0.66635765  0.33271531  0.49990791
Direct configuration=     3
   0.00000000  0.00000000 -0.00000000
   0.33354173  0.66708347  0.50006814
   0.66645827  0.33291653  0.49993186
