   2   2   0   0
  0.3972538E+02  0.2450115E-09  0.2450115E-09  0.1552239E-08  0.1000000E-15
  1.000000000000000E-004
  CAR 
 unknown system                          
     84.30268784    -27.05654878  301     -2.13991959      1.00000000
    -27.057  0.0000E+00  0.0000E+00
    -26.685  0.0000E+00  0.0000E+00
    -26.314  0.0000E+00  0.0000E+00
    -25.943  0.0000E+00  0.0000E+00
    -25.572  0.0000E+00  0.0000E+00
    -25.201  0.0000E+00  0.0000E+00
    -24.829  0.0000E+00  0.0000E+00
    -24.458  0.0000E+00  0.0000E+00
    -24.087  0.0000E+00  0.0000E+00
    -23.716  0.0000E+00  0.0000E+00
    -23.345  0.0000E+00  0.0000E+00
    -22.973  0.0000E+00  0.0000E+00
    -22.602  0.0000E+00  0.0000E+00
    -22.231  0.3732E-06  0.1385E-06
    -21.860  0.2567E-02  0.9531E-03
    -21.489  0.6221E-02  0.3262E-02
    -21.117  0.5969E-02  0.5478E-02
    -20.746  0.5415E-02  0.7488E-02
    -20.375  0.6855E-02  0.1003E-01
    -20.004  0.5158E-02  0.1195E-01
    -19.633  0.7768E-02  0.1483E-01
    -19.261  0.4757E-02  0.1660E-01
    -18.890  0.7245E-02  0.1929E-01
    -18.519  0.4878E-02  0.2110E-01
    -18.148  0.7657E-02  0.2394E-01
    -17.777  0.5843E-02  0.2611E-01
    -17.405  0.5817E-02  0.2827E-01
    -17.034  0.9151E-02  0.3166E-01
    -16.663  0.6489E-02  0.3407E-01
    -16.292  0.5119E-02  0.3597E-01
    -15.921  0.7554E-02  0.3878E-01
    -15.549  0.1894E-02  0.3948E-01
    -15.178  0.7680E-02  0.4233E-01
    -14.807  0.5261E-02  0.4428E-01
    -14.436  0.8921E-02  0.4760E-01
    -14.065  0.6288E-02  0.4993E-01
    -13.693  0.8269E-02  0.5300E-01
    -13.322  0.3394E-02  0.5426E-01
    -12.951  0.7923E-02  0.5720E-01
    -12.580  0.5315E-02  0.5917E-01
    -12.209  0.9494E-02  0.6270E-01
    -11.837  0.3837E-02  0.6412E-01
    -11.466  0.1175E-01  0.6848E-01
    -11.095  0.5254E-02  0.7043E-01
    -10.724  0.6791E-02  0.7295E-01
    -10.353  0.9553E-02  0.7650E-01
     -9.981  0.9847E-02  0.8015E-01
     -9.610  0.1342E-01  0.8514E-01
     -9.239  0.1462E-01  0.9056E-01
     -8.868  0.2052E-01  0.9818E-01
     -8.497  0.1545E-01  0.1039E+00
     -8.125  0.2028E-01  0.1114E+00
     -7.754  0.1340E-01  0.1164E+00
     -7.383  0.1390E-01  0.1216E+00
     -7.012  0.1041E-01  0.1254E+00
     -6.641  0.1312E-01  0.1303E+00
     -6.269  0.1200E-01  0.1348E+00
     -5.898  0.1052E-01  0.1387E+00
     -5.527  0.1116E-01  0.1428E+00
     -5.156  0.1161E-01  0.1471E+00
     -4.785  0.5997E-02  0.1493E+00
     -4.414  0.1272E-01  0.1541E+00
     -4.042  0.3975E-02  0.1555E+00
     -3.671  0.4312E-02  0.1571E+00
     -3.300  0.5028E-02  0.1590E+00
     -2.929  0.1894E-03  0.1591E+00
     -2.558  0.2272E-02  0.1599E+00
     -2.186  0.2071E-03  0.1600E+00
     -1.815  0.9454E-04  0.1600E+00
     -1.444  0.2148E-02  0.1608E+00
     -1.073  0.3544E-03  0.1610E+00
     -0.702  0.5796E-02  0.1631E+00
     -0.330  0.9862E-02  0.1668E+00
      0.041  0.7703E-02  0.1696E+00
      0.412  0.6654E-02  0.1721E+00
      0.783  0.6736E-02  0.1746E+00
      1.154  0.4109E-02  0.1761E+00
      1.526  0.1175E-01  0.1805E+00
      1.897  0.8004E-02  0.1835E+00
      2.268  0.1353E-01  0.1885E+00
      2.639  0.1438E-01  0.1938E+00
      3.010  0.1716E-01  0.2002E+00
      3.382  0.1641E-01  0.2063E+00
      3.753  0.1396E-01  0.2115E+00
      4.124  0.2160E-01  0.2195E+00
      4.495  0.1723E-01  0.2259E+00
      4.866  0.1955E-01  0.2331E+00
      5.238  0.2684E-01  0.2431E+00
      5.609  0.3318E-01  0.2554E+00
      5.980  0.2429E-01  0.2644E+00
      6.351  0.3932E-01  0.2790E+00
      6.722  0.4306E-01  0.2950E+00
      7.094  0.3953E-01  0.3097E+00
      7.465  0.3263E-01  0.3218E+00
      7.836  0.3460E-01  0.3346E+00
      8.207  0.4640E-01  0.3519E+00
      8.578  0.3193E-01  0.3637E+00
      8.950  0.3974E-01  0.3785E+00
      9.321  0.4298E-01  0.3944E+00
      9.692  0.4850E-01  0.4124E+00
     10.063  0.3477E-01  0.4253E+00
     10.434  0.3334E-01  0.4377E+00
     10.806  0.4227E-01  0.4534E+00
     11.177  0.4904E-01  0.4716E+00
     11.548  0.3707E-01  0.4854E+00
     11.919  0.5495E-01  0.5058E+00
     12.290  0.3931E-01  0.5204E+00
     12.662  0.2879E-01  0.5310E+00
     13.033  0.4719E-01  0.5486E+00
     13.404  0.3438E-01  0.5613E+00
     13.775  0.3791E-01  0.5754E+00
     14.146  0.4761E-01  0.5931E+00
     14.518  0.5363E-01  0.6130E+00
     14.889  0.5510E-01  0.6334E+00
     15.260  0.4226E-01  0.6491E+00
     15.631  0.3948E-01  0.6638E+00
     16.002  0.4334E-01  0.6799E+00
     16.374  0.4045E-01  0.6949E+00
     16.745  0.5191E-01  0.7141E+00
     17.116  0.5176E-01  0.7334E+00
     17.487  0.3881E-01  0.7478E+00
     17.858  0.5080E-01  0.7666E+00
     18.230  0.4109E-01  0.7819E+00
     18.601  0.5134E-01  0.8009E+00
     18.972  0.5240E-01  0.8204E+00
     19.343  0.5015E-01  0.8390E+00
     19.714  0.4548E-01  0.8559E+00
     20.086  0.5934E-01  0.8779E+00
     20.457  0.3898E-01  0.8924E+00
     20.828  0.4894E-01  0.9105E+00
     21.199  0.6373E-01  0.9342E+00
     21.570  0.6258E-01  0.9574E+00
     21.942  0.6167E-01  0.9803E+00
     22.313  0.5688E-01  0.1001E+01
     22.684  0.5663E-01  0.1022E+01
     23.055  0.6572E-01  0.1047E+01
     23.426  0.5433E-01  0.1067E+01
     23.798  0.6105E-01  0.1090E+01
     24.169  0.5501E-01  0.1110E+01
     24.540  0.6770E-01  0.1135E+01
     24.911  0.5066E-01  0.1154E+01
     25.282  0.5999E-01  0.1176E+01
     25.653  0.5408E-01  0.1196E+01
     26.025  0.3979E-01  0.1211E+01
     26.396  0.6395E-01  0.1235E+01
     26.767  0.6027E-01  0.1257E+01
     27.138  0.5265E-01  0.1277E+01
     27.509  0.5961E-01  0.1299E+01
     27.881  0.4928E-01  0.1317E+01
     28.252  0.4868E-01  0.1335E+01
     28.623  0.6375E-01  0.1359E+01
     28.994  0.6384E-01  0.1383E+01
     29.365  0.7235E-01  0.1410E+01
     29.737  0.5291E-01  0.1429E+01
     30.108  0.6443E-01  0.1453E+01
     30.479  0.5320E-01  0.1473E+01
     30.850  0.5204E-01  0.1492E+01
     31.221  0.5512E-01  0.1513E+01
     31.593  0.7284E-01  0.1540E+01
     31.964  0.7839E-01  0.1569E+01
     32.335  0.6177E-01  0.1592E+01
     32.706  0.5772E-01  0.1613E+01
     33.077  0.4305E-01  0.1629E+01
     33.449  0.4861E-01  0.1647E+01
     33.820  0.5702E-01  0.1668E+01
     34.191  0.6131E-01  0.1691E+01
     34.562  0.7786E-01  0.1720E+01
     34.933  0.6574E-01  0.1744E+01
     35.305  0.5989E-01  0.1767E+01
     35.676  0.7242E-01  0.1793E+01
     36.047  0.6176E-01  0.1816E+01
     36.418  0.6806E-01  0.1842E+01
     36.789  0.5948E-01  0.1864E+01
     37.161  0.5690E-01  0.1885E+01
     37.532  0.5333E-01  0.1905E+01
     37.903  0.6941E-01  0.1930E+01
     38.274  0.8442E-01  0.1962E+01
     38.645  0.7193E-01  0.1988E+01
     39.017  0.7852E-01  0.2018E+01
     39.388  0.7079E-01  0.2044E+01
     39.759  0.6903E-01  0.2069E+01
     40.130  0.6166E-01  0.2092E+01
     40.501  0.8693E-01  0.2125E+01
     40.873  0.5840E-01  0.2146E+01
     41.244  0.8140E-01  0.2177E+01
     41.615  0.7830E-01  0.2206E+01
     41.986  0.7032E-01  0.2232E+01
     42.357  0.7144E-01  0.2258E+01
     42.729  0.8121E-01  0.2288E+01
     43.100  0.6685E-01  0.2313E+01
     43.471  0.7944E-01  0.2343E+01
     43.842  0.7118E-01  0.2369E+01
     44.213  0.6887E-01  0.2395E+01
     44.585  0.8150E-01  0.2425E+01
     44.956  0.6309E-01  0.2448E+01
     45.327  0.7638E-01  0.2477E+01
     45.698  0.8636E-01  0.2509E+01
     46.069  0.7414E-01  0.2536E+01
     46.441  0.6588E-01  0.2561E+01
     46.812  0.7891E-01  0.2590E+01
     47.183  0.9426E-01  0.2625E+01
     47.554  0.7942E-01  0.2654E+01
     47.925  0.7169E-01  0.2681E+01
     48.297  0.8443E-01  0.2712E+01
     48.668  0.7605E-01  0.2741E+01
     49.039  0.7662E-01  0.2769E+01
     49.410  0.5671E-01  0.2790E+01
     49.781  0.8314E-01  0.2821E+01
     50.153  0.8246E-01  0.2852E+01
     50.524  0.8164E-01  0.2882E+01
     50.895  0.6687E-01  0.2907E+01
     51.266  0.9989E-01  0.2944E+01
     51.637  0.6415E-01  0.2968E+01
     52.009  0.8494E-01  0.2999E+01
     52.380  0.7482E-01  0.3027E+01
     52.751  0.6393E-01  0.3051E+01
     53.122  0.7814E-01  0.3080E+01
     53.493  0.8060E-01  0.3110E+01
     53.864  0.8608E-01  0.3142E+01
     54.236  0.6982E-01  0.3167E+01
     54.607  0.9283E-01  0.3202E+01
     54.978  0.9568E-01  0.3237E+01
     55.349  0.7414E-01  0.3265E+01
     55.720  0.8547E-01  0.3297E+01
     56.092  0.7775E-01  0.3326E+01
     56.463  0.8250E-01  0.3356E+01
     56.834  0.7077E-01  0.3382E+01
     57.205  0.8375E-01  0.3414E+01
     57.576  0.7778E-01  0.3442E+01
     57.948  0.7204E-01  0.3469E+01
     58.319  0.9967E-01  0.3506E+01
     58.690  0.9104E-01  0.3540E+01
     59.061  0.9698E-01  0.3576E+01
     59.432  0.8148E-01  0.3606E+01
     59.804  0.7551E-01  0.3634E+01
     60.175  0.8026E-01  0.3664E+01
     60.546  0.8714E-01  0.3696E+01
     60.917  0.9132E-01  0.3730E+01
     61.288  0.9363E-01  0.3765E+01
     61.660  0.1008E+00  0.3802E+01
     62.031  0.9471E-01  0.3838E+01
     62.402  0.7404E-01  0.3865E+01
     62.773  0.7518E-01  0.3893E+01
     63.144  0.8055E-01  0.3923E+01
     63.516  0.1016E+00  0.3961E+01
     63.887  0.1032E+00  0.3999E+01
     64.258  0.8349E-01  0.4030E+01
     64.629  0.9590E-01  0.4065E+01
     65.000  0.8330E-01  0.4096E+01
     65.372  0.9529E-01  0.4132E+01
     65.743  0.7887E-01  0.4161E+01
     66.114  0.9431E-01  0.4196E+01
     66.485  0.8534E-01  0.4228E+01
     66.856  0.1015E+00  0.4265E+01
     67.228  0.7664E-01  0.4294E+01
     67.599  0.8492E-01  0.4325E+01
     67.970  0.1070E+00  0.4365E+01
     68.341  0.9191E-01  0.4399E+01
     68.712  0.9172E-01  0.4433E+01
     69.084  0.8031E-01  0.4463E+01
     69.455  0.1053E+00  0.4502E+01
     69.826  0.8573E-01  0.4534E+01
     70.197  0.7816E-01  0.4563E+01
     70.568  0.8326E-01  0.4594E+01
     70.940  0.9040E-01  0.4627E+01
     71.311  0.9318E-01  0.4662E+01
     71.682  0.1031E+00  0.4700E+01
     72.053  0.8007E-01  0.4730E+01
     72.424  0.8233E-01  0.4761E+01
     72.796  0.9717E-01  0.4797E+01
     73.167  0.9861E-01  0.4833E+01
     73.538  0.9721E-01  0.4869E+01
     73.909  0.9522E-01  0.4905E+01
     74.280  0.9630E-01  0.4940E+01
     74.652  0.8238E-01  0.4971E+01
     75.023  0.9434E-01  0.5006E+01
     75.394  0.8374E-01  0.5037E+01
     75.765  0.6339E-01  0.5061E+01
     76.136  0.4860E-01  0.5079E+01
     76.508  0.3410E-01  0.5091E+01
     76.879  0.2233E-01  0.5100E+01
     77.250  0.2216E-01  0.5108E+01
     77.621  0.6622E-02  0.5110E+01
     77.992  0.8858E-02  0.5114E+01
     78.364  0.3614E-02  0.5115E+01
     78.735  0.6838E-02  0.5118E+01
     79.106  0.4662E-02  0.5119E+01
     79.477  0.2010E-02  0.5120E+01
     79.848  0.7038E-06  0.5120E+01
     80.220  0.0000E+00  0.5120E+01
     80.591  0.0000E+00  0.5120E+01
     80.962  0.0000E+00  0.5120E+01
     81.333  0.0000E+00  0.5120E+01
     81.704  0.0000E+00  0.5120E+01
     82.076  0.0000E+00  0.5120E+01
     82.447  0.0000E+00  0.5120E+01
     82.818  0.0000E+00  0.5120E+01
     83.189  0.0000E+00  0.5120E+01
     83.560  0.0000E+00  0.5120E+01
     83.931  0.0000E+00  0.5120E+01
     84.303  0.0000E+00  0.5120E+01
