    2    2   50    1
  0.3972538E+02  0.2450115E-09  0.2450115E-09  0.1552239E-08  0.1000000E-15
  1.000000000000000E-004
  CAR 
 unknown system                          
      8     72    128
 
  0.3125000E-01  0.3125000E-01  0.0000000E+00  0.7812500E-02
    1      -21.944326   1.000000
    2       -9.976582   1.000000
    3       -5.504833   1.000000
    4       -5.263752   1.000000
    5        1.073475   0.000000
    6        1.968180   0.000000
    7        2.512433   0.000000
    8        4.215307   0.000000
    9        4.949456   0.000000
   10        6.448578   0.000000
   11        6.667018   0.000000
   12        7.847832   0.000000
   13        8.886306   0.000000
   14        9.526309   0.000000
   15       11.572722   0.000000
   16       12.822937   0.000000
   17       14.203836   0.000000
   18       18.986069   0.000000
   19       20.859613   0.000000
   20       21.199987   0.000000
   21       25.548484   0.000000
   22       25.817691   0.000000
   23       26.329737   0.000000
   24       28.798981   0.000000
   25       29.267855   0.000000
   26       30.730899   0.000000
   27       31.750969   0.000000
   28       31.978210   0.000000
   29       33.203612   0.000000
   30       33.234070   0.000000
   31       33.434653   0.000000
   32       33.545656   0.000000
   33       33.727308   0.000000
   34       33.750498   0.000000
   35       33.934416   0.000000
   36       35.027940   0.000000
   37       35.077881   0.000000
   38       35.305987   0.000000
   39       35.344181   0.000000
   40       35.636259   0.000000
   41       35.800678   0.000000
   42       35.832815   0.000000
   43       36.060063   0.000000
   44       36.841590   0.000000
   45       37.343072   0.000000
   46       37.460009   0.000000
   47       37.530498   0.000000
   48       37.888317   0.000000
   49       37.927787   0.000000
   50       38.136760   0.000000
   51       38.643255   0.000000
   52       38.984898   0.000000
   53       39.647121   0.000000
   54       39.851926   0.000000
   55       39.862389   0.000000
   56       40.053161   0.000000
   57       40.141986   0.000000
   58       40.221469   0.000000
   59       40.233942   0.000000
   60       41.136375   0.000000
   61       41.302680   0.000000
   62       41.467533   0.000000
   63       41.484363   0.000000
   64       42.251889   0.000000
   65       42.307844   0.000000
   66       42.537087   0.000000
   67       42.550068   0.000000
   68       44.011773   0.000000
   69       44.666638   0.000000
   70       44.811807   0.000000
   71       44.822174   0.000000
   72       45.493484   0.000000
   73       45.662721   0.000000
   74       45.898125   0.000000
   75       46.037304   0.000000
   76       46.494400   0.000000
   77       46.646281   0.000000
   78       46.875102   0.000000
   79       47.139144   0.000000
   80       47.984304   0.000000
   81       48.399949   0.000000
   82       49.365383   0.000000
   83       49.596402   0.000000
   84       49.970567   0.000000
   85       51.032013   0.000000
   86       51.400641   0.000000
   87       51.789060   0.000000
   88       51.876121   0.000000
   89       52.064762   0.000000
   90       52.466353   0.000000
   91       53.253743   0.000000
   92       53.304167   0.000000
   93       53.731126   0.000000
   94       53.908235   0.000000
   95       54.656670   0.000000
   96       56.944351   0.000000
   97       57.138695   0.000000
   98       57.917990   0.000000
   99       58.726010   0.000000
  100       59.031383   0.000000
  101       59.075935   0.000000
  102       59.851032   0.000000
  103       59.869801   0.000000
  104       60.228739   0.000000
  105       60.387175   0.000000
  106       61.148427   0.000000
  107       61.700071   0.000000
  108       61.725176   0.000000
  109       62.134178   0.000000
  110       65.015473   0.000000
  111       65.803886   0.000000
  112       66.118959   0.000000
  113       66.960348   0.000000
  114       67.564668   0.000000
  115       68.339639   0.000000
  116       68.780334   0.000000
  117       69.008367   0.000000
  118       69.816881   0.000000
  119       70.276204   0.000000
  120       70.310875   0.000000
  121       70.838431   0.000000
  122       71.919661   0.000000
  123       71.994019   0.000000
  124       72.327245   0.000000
  125       72.915175   0.000000
  126       74.292776   0.000000
  127       74.974999   0.000000
  128       75.779114   0.000000
 
  0.9375000E-01  0.3125000E-01  0.0000000E+00  0.1562500E-01
    1      -21.701773   1.000000
    2       -9.685040   1.000000
    3       -6.193155   1.000000
    4       -5.911131   1.000000
    5        1.404121   0.000000
    6        2.301722   0.000000
    7        2.849485   0.000000
    8        4.547426   0.000000
    9        5.276741   0.000000
   10        6.563012   0.000000
   11        7.409629   0.000000
   12        8.171333   0.000000
   13        8.740300   0.000000
   14        9.221049   0.000000
   15       12.117719   0.000000
   16       13.126720   0.000000
   17       14.533111   0.000000
   18       19.197450   0.000000
   19       21.184997   0.000000
   20       21.975823   0.000000
   21       23.641141   0.000000
   22       24.682503   0.000000
   23       26.392291   0.000000
   24       28.215267   0.000000
   25       29.030276   0.000000
   26       29.110633   0.000000
   27       29.620548   0.000000
   28       29.687195   0.000000
   29       30.088517   0.000000
   30       31.569252   0.000000
   31       31.640790   0.000000
   32       31.841978   0.000000
   33       31.930844   0.000000
   34       32.279052   0.000000
   35       32.582544   0.000000
   36       33.605730   0.000000
   37       33.827558   0.000000
   38       33.828880   0.000000
   39       34.137747   0.000000
   40       35.257912   0.000000
   41       35.505920   0.000000
   42       35.639692   0.000000
   43       35.941212   0.000000
   44       36.262446   0.000000
   45       36.330269   0.000000
   46       37.429482   0.000000
   47       37.717478   0.000000
   48       37.878931   0.000000
   49       37.922848   0.000000
   50       38.233732   0.000000
   51       38.591995   0.000000
   52       39.512335   0.000000
   53       39.726979   0.000000
   54       39.801740   0.000000
   55       40.090051   0.000000
   56       40.486246   0.000000
   57       40.916474   0.000000
   58       41.455810   0.000000
   59       42.364632   0.000000
   60       42.485434   0.000000
   61       42.684417   0.000000
   62       42.772207   0.000000
   63       43.188229   0.000000
   64       43.586648   0.000000
   65       43.732473   0.000000
   66       44.352567   0.000000
   67       44.618832   0.000000
   68       44.805054   0.000000
   69       44.832298   0.000000
   70       45.045022   0.000000
   71       45.132730   0.000000
   72       46.370387   0.000000
   73       46.477461   0.000000
   74       46.789119   0.000000
   75       47.231045   0.000000
   76       47.520444   0.000000
   77       47.864473   0.000000
   78       48.381988   0.000000
   79       48.592848   0.000000
   80       49.066224   0.000000
   81       49.232255   0.000000
   82       49.358957   0.000000
   83       49.664731   0.000000
   84       50.086045   0.000000
   85       50.912866   0.000000
   86       51.211776   0.000000
   87       51.488247   0.000000
   88       52.050438   0.000000
   89       52.253085   0.000000
   90       53.638144   0.000000
   91       54.648183   0.000000
   92       54.847151   0.000000
   93       55.578256   0.000000
   94       55.637287   0.000000
   95       56.032411   0.000000
   96       56.301352   0.000000
   97       57.094454   0.000000
   98       57.154604   0.000000
   99       58.144782   0.000000
  100       58.904661   0.000000
  101       59.303003   0.000000
  102       59.734651   0.000000
  103       60.592848   0.000000
  104       61.038386   0.000000
  105       61.197268   0.000000
  106       62.384329   0.000000
  107       62.998203   0.000000
  108       63.567965   0.000000
  109       64.158848   0.000000
  110       64.484791   0.000000
  111       65.221180   0.000000
  112       66.184038   0.000000
  113       66.939413   0.000000
  114       67.871244   0.000000
  115       68.091241   0.000000
  116       68.547065   0.000000
  117       68.553733   0.000000
  118       69.588379   0.000000
  119       70.379787   0.000000
  120       71.043590   0.000000
  121       71.211678   0.000000
  122       72.151874   0.000000
  123       73.254577   0.000000
  124       73.281821   0.000000
  125       74.013828   0.000000
  126       74.643144   0.000000
  127       75.633918   0.000000
  128       76.558324   0.000000
 
  0.1562500E+00  0.3125000E-01  0.0000000E+00  0.1562500E-01
    1      -21.268452   1.000000
    2       -9.166944   1.000000
    3       -7.530804   1.000000
    4       -6.580762   1.000000
    5        1.996479   0.000000
    6        2.898393   0.000000
    7        3.453672   0.000000
    8        5.140766   0.000000
    9        5.849242   0.000000
   10        6.420215   0.000000
   11        7.458935   0.000000
   12        8.750442   0.000000
   13        8.879005   0.000000
   14        9.813509   0.000000
   15       13.048209   0.000000
   16       13.654567   0.000000
   17       15.117340   0.000000
   18       19.317963   0.000000
   19       21.720765   0.000000
   20       21.806306   0.000000
   21       22.852345   0.000000
   22       23.207119   0.000000
   23       24.983534   0.000000
   24       25.801532   0.000000
   25       26.094787   0.000000
   26       27.046280   0.000000
   27       28.362295   0.000000
   28       28.583453   0.000000
   29       28.657872   0.000000
   30       29.014791   0.000000
   31       29.675825   0.000000
   32       30.029921   0.000000
   33       30.464405   0.000000
   34       30.768424   0.000000
   35       31.985918   0.000000
   36       32.134927   0.000000
   37       32.214139   0.000000
   38       32.277209   0.000000
   39       32.551910   0.000000
   40       32.695490   0.000000
   41       34.037384   0.000000
   42       34.538669   0.000000
   43       35.685224   0.000000
   44       35.821813   0.000000
   45       36.330251   0.000000
   46       36.914710   0.000000
   47       37.330289   0.000000
   48       37.643618   0.000000
   49       38.355229   0.000000
   50       38.540821   0.000000
   51       38.843856   0.000000
   52       38.904618   0.000000
   53       40.080968   0.000000
   54       40.359808   0.000000
   55       41.118360   0.000000
   56       41.417214   0.000000
   57       41.970120   0.000000
   58       42.200654   0.000000
   59       42.811787   0.000000
   60       43.015370   0.000000
   61       43.139091   0.000000
   62       43.482777   0.000000
   63       43.936384   0.000000
   64       44.222346   0.000000
   65       45.265157   0.000000
   66       45.427049   0.000000
   67       45.440065   0.000000
   68       46.109608   0.000000
   69       46.256004   0.000000
   70       47.011178   0.000000
   71       47.041601   0.000000
   72       47.632615   0.000000
   73       47.763499   0.000000
   74       48.633671   0.000000
   75       48.892314   0.000000
   76       49.001270   0.000000
   77       49.468606   0.000000
   78       49.700254   0.000000
   79       49.859946   0.000000
   80       50.203959   0.000000
   81       50.536770   0.000000
   82       51.303687   0.000000
   83       51.471073   0.000000
   84       51.838520   0.000000
   85       51.967577   0.000000
   86       52.232304   0.000000
   87       52.435872   0.000000
   88       52.698405   0.000000
   89       52.984497   0.000000
   90       54.888741   0.000000
   91       55.899108   0.000000
   92       55.953258   0.000000
   93       56.375497   0.000000
   94       56.537583   0.000000
   95       57.418788   0.000000
   96       57.572428   0.000000
   97       58.068429   0.000000
   98       58.365366   0.000000
   99       58.845583   0.000000
  100       59.553186   0.000000
  101       60.720989   0.000000
  102       60.908406   0.000000
  103       61.276397   0.000000
  104       61.582011   0.000000
  105       61.926049   0.000000
  106       63.400706   0.000000
  107       63.706455   0.000000
  108       64.496783   0.000000
  109       64.897484   0.000000
  110       65.733219   0.000000
  111       66.092815   0.000000
  112       66.526248   0.000000
  113       66.764898   0.000000
  114       67.767282   0.000000
  115       67.837743   0.000000
  116       68.158368   0.000000
  117       69.479313   0.000000
  118       71.315218   0.000000
  119       71.698960   0.000000
  120       71.974720   0.000000
  121       72.151630   0.000000
  122       73.379983   0.000000
  123       74.393796   0.000000
  124       74.453390   0.000000
  125       75.525405   0.000000
  126       75.646561   0.000000
  127       75.819487   0.000000
  128       76.110962   0.000000
 
  0.2187500E+00  0.3125000E-01  0.0000000E+00  0.1562500E-01
    1      -20.647129   1.000000
    2       -9.123880   1.000000
    3       -8.431704   1.000000
    4       -7.291131   1.000000
    5        2.849359   0.000000
    6        3.752392   0.000000
    7        4.324389   0.000000
    8        5.791765   0.000000
    9        6.056490   0.000000
   10        6.099973   0.000000
   11        6.773138   0.000000
   12        9.575175   0.000000
   13       10.647545   0.000000
   14       10.706871   0.000000
   15       14.201661   0.000000
   16       14.360022   0.000000
   17       15.949438   0.000000
   18       18.532042   0.000000
   19       21.139393   0.000000
   20       21.170763   0.000000
   21       21.872094   0.000000
   22       22.433874   0.000000
   23       22.626123   0.000000
   24       22.894850   0.000000
   25       24.337103   0.000000
   26       24.887111   0.000000
   27       25.680414   0.000000
   28       27.255514   0.000000
   29       27.470320   0.000000
   30       28.309814   0.000000
   31       28.674140   0.000000
   32       29.076738   0.000000
   33       29.383186   0.000000
   34       29.677241   0.000000
   35       30.003299   0.000000
   36       30.554669   0.000000
   37       30.898273   0.000000
   38       30.911599   0.000000
   39       31.396932   0.000000
   40       32.024715   0.000000
   41       33.352805   0.000000
   42       33.426094   0.000000
   43       34.196752   0.000000
   44       34.297402   0.000000
   45       34.983111   0.000000
   46       35.077516   0.000000
   47       36.526046   0.000000
   48       37.252976   0.000000
   49       37.997190   0.000000
   50       38.935780   0.000000
   51       39.286815   0.000000
   52       40.026577   0.000000
   53       40.214526   0.000000
   54       40.435800   0.000000
   55       40.868207   0.000000
   56       41.287344   0.000000
   57       42.476978   0.000000
   58       42.576656   0.000000
   59       43.142109   0.000000
   60       43.142121   0.000000
   61       43.903242   0.000000
   62       44.668984   0.000000
   63       44.889997   0.000000
   64       45.801342   0.000000
   65       45.939531   0.000000
   66       46.889597   0.000000
   67       46.938166   0.000000
   68       47.292068   0.000000
   69       47.771138   0.000000
   70       48.545748   0.000000
   71       48.674200   0.000000
   72       48.762647   0.000000
   73       48.816580   0.000000
   74       49.442805   0.000000
   75       49.467125   0.000000
   76       49.879783   0.000000
   77       50.218561   0.000000
   78       50.774423   0.000000
   79       51.121018   0.000000
   80       51.226238   0.000000
   81       53.319273   0.000000
   82       53.453916   0.000000
   83       54.432429   0.000000
   84       54.602342   0.000000
   85       54.710109   0.000000
   86       54.909185   0.000000
   87       54.970807   0.000000
   88       55.263111   0.000000
   89       55.412492   0.000000
   90       56.350389   0.000000
   91       56.882329   0.000000
   92       57.086912   0.000000
   93       57.247210   0.000000
   94       57.530810   0.000000
   95       58.159662   0.000000
   96       59.581453   0.000000
   97       59.953491   0.000000
   98       60.179974   0.000000
   99       60.804565   0.000000
  100       60.932398   0.000000
  101       61.748545   0.000000
  102       61.818091   0.000000
  103       62.033453   0.000000
  104       63.359666   0.000000
  105       63.460725   0.000000
  106       64.532981   0.000000
  107       65.168513   0.000000
  108       65.842467   0.000000
  109       66.168604   0.000000
  110       66.221869   0.000000
  111       66.480853   0.000000
  112       67.389231   0.000000
  113       67.657977   0.000000
  114       68.604387   0.000000
  115       69.122236   0.000000
  116       69.158282   0.000000
  117       70.295736   0.000000
  118       72.280211   0.000000
  119       72.569053   0.000000
  120       73.792463   0.000000
  121       73.835752   0.000000
  122       74.121875   0.000000
  123       74.280167   0.000000
  124       74.605349   0.000000
  125       74.929226   0.000000
  126       75.186793   0.000000
  127       76.302179   0.000000
  128       76.593798   0.000000
 
  0.2812500E+00  0.3125000E-01  0.0000000E+00  0.1562500E-01
    1      -19.842181   1.000000
    2      -10.815778   1.000000
    3       -7.933161   1.000000
    4       -7.498154   1.000000
    5        3.959328   0.000000
    6        4.007323   0.000000
    7        4.920748   0.000000
    8        5.452744   0.000000
    9        5.858610   0.000000
   10        7.119901   0.000000
   11        7.870244   0.000000
   12       10.630835   0.000000
   13       11.757645   0.000000
   14       12.589483   0.000000
   15       15.040553   0.000000
   16       15.195727   0.000000
   17       17.012472   0.000000
   18       17.253037   0.000000
   19       18.571772   0.000000
   20       19.493301   0.000000
   21       19.591682   0.000000
   22       20.920688   0.000000
   23       21.404192   0.000000
   24       21.978446   0.000000
   25       22.949509   0.000000
   26       23.424587   0.000000
   27       25.195095   0.000000
   28       25.466551   0.000000
   29       25.957519   0.000000
   30       27.093130   0.000000
   31       27.236366   0.000000
   32       27.593110   0.000000
   33       28.724541   0.000000
   34       28.845429   0.000000
   35       29.407958   0.000000
   36       29.914359   0.000000
   37       29.926499   0.000000
   38       30.282236   0.000000
   39       31.097188   0.000000
   40       31.335707   0.000000
   41       31.881060   0.000000
   42       32.115207   0.000000
   43       32.508934   0.000000
   44       33.056641   0.000000
   45       33.964953   0.000000
   46       34.879193   0.000000
   47       36.279848   0.000000
   48       36.292260   0.000000
   49       37.648734   0.000000
   50       37.826489   0.000000
   51       38.283206   0.000000
   52       38.840935   0.000000
   53       40.156555   0.000000
   54       40.418713   0.000000
   55       40.603193   0.000000
   56       40.977502   0.000000
   57       42.033096   0.000000
   58       43.045601   0.000000
   59       44.261893   0.000000
   60       44.744611   0.000000
   61       45.304616   0.000000
   62       45.420521   0.000000
   63       46.005394   0.000000
   64       46.121461   0.000000
   65       46.421049   0.000000
   66       46.772680   0.000000
   67       47.506443   0.000000
   68       48.349750   0.000000
   69       48.554609   0.000000
   70       49.011422   0.000000
   71       49.679791   0.000000
   72       50.640557   0.000000
   73       50.929374   0.000000
   74       51.830382   0.000000
   75       52.161667   0.000000
   76       52.218616   0.000000
   77       52.562137   0.000000
   78       53.141590   0.000000
   79       53.250994   0.000000
   80       53.785013   0.000000
   81       54.176345   0.000000
   82       54.317815   0.000000
   83       54.571810   0.000000
   84       55.070152   0.000000
   85       55.736047   0.000000
   86       56.295548   0.000000
   87       57.458321   0.000000
   88       57.520090   0.000000
   89       57.934943   0.000000
   90       58.282240   0.000000
   91       59.203409   0.000000
   92       59.798655   0.000000
   93       60.420599   0.000000
   94       60.562889   0.000000
   95       61.562233   0.000000
   96       61.836129   0.000000
   97       62.323576   0.000000
   98       62.646568   0.000000
   99       62.755944   0.000000
  100       63.234010   0.000000
  101       63.630609   0.000000
  102       63.743953   0.000000
  103       64.305916   0.000000
  104       64.746265   0.000000
  105       64.834047   0.000000
  106       64.838958   0.000000
  107       65.446567   0.000000
  108       65.948738   0.000000
  109       66.512485   0.000000
  110       66.530485   0.000000
  111       67.263693   0.000000
  112       69.034748   0.000000
  113       69.474423   0.000000
  114       69.788211   0.000000
  115       70.800221   0.000000
  116       71.227443   0.000000
  117       72.123993   0.000000
  118       72.148981   0.000000
  119       72.835879   0.000000
  120       73.068952   0.000000
  121       73.506751   0.000000
  122       74.655589   0.000000
  123       74.773979   0.000000
  124       74.965127   0.000000
  125       75.364845   0.000000
  126       75.864639   0.000000
  127       76.216778   0.000000
  128       76.763813   0.000000
 
  0.3437500E+00  0.3125000E-01  0.0000000E+00  0.1562500E-01
    1      -18.861127   1.000000
    2      -12.504191   1.000000
    3       -8.442208   1.000000
    4       -6.408009   1.000000
    5        2.228050   0.000000
    6        5.286744   0.000000
    7        5.649756   0.000000
    8        6.272850   0.000000
    9        6.875635   0.000000
   10        8.481259   0.000000
   11        9.241936   0.000000
   12       11.864897   0.000000
   13       13.099888   0.000000
   14       13.482329   0.000000
   15       14.679807   0.000000
   16       15.489640   0.000000
   17       16.384885   0.000000
   18       16.390101   0.000000
   19       17.651053   0.000000
   20       17.731662   0.000000
   21       18.300835   0.000000
   22       19.285445   0.000000
   23       19.871997   0.000000
   24       20.445686   0.000000
   25       22.290688   0.000000
   26       23.085269   0.000000
   27       24.338234   0.000000
   28       24.463276   0.000000
   29       25.077131   0.000000
   30       26.290712   0.000000
   31       26.715593   0.000000
   32       26.940341   0.000000
   33       27.400104   0.000000
   34       27.929506   0.000000
   35       28.745666   0.000000
   36       28.886599   0.000000
   37       29.256877   0.000000
   38       29.270737   0.000000
   39       29.697188   0.000000
   40       31.066201   0.000000
   41       31.421481   0.000000
   42       31.700908   0.000000
   43       32.326598   0.000000
   44       32.874912   0.000000
   45       33.524101   0.000000
   46       34.081005   0.000000
   47       35.206736   0.000000
   48       35.439534   0.000000
   49       35.586537   0.000000
   50       37.137564   0.000000
   51       37.583751   0.000000
   52       38.661081   0.000000
   53       39.132102   0.000000
   54       40.023739   0.000000
   55       40.998913   0.000000
   56       41.895206   0.000000
   57       42.123608   0.000000
   58       42.510687   0.000000
   59       43.031488   0.000000
   60       44.715003   0.000000
   61       44.966123   0.000000
   62       45.737966   0.000000
   63       45.840630   0.000000
   64       47.511515   0.000000
   65       47.816190   0.000000
   66       48.670598   0.000000
   67       49.757162   0.000000
   68       50.046237   0.000000
   69       50.166224   0.000000
   70       50.825208   0.000000
   71       51.908024   0.000000
   72       52.170294   0.000000
   73       52.221547   0.000000
   74       53.100711   0.000000
   75       53.269714   0.000000
   76       53.304756   0.000000
   77       53.850690   0.000000
   78       54.671359   0.000000
   79       55.504718   0.000000
   80       55.580327   0.000000
   81       55.839420   0.000000
   82       55.964410   0.000000
   83       56.049550   0.000000
   84       57.460499   0.000000
   85       57.761852   0.000000
   86       57.983228   0.000000
   87       59.059420   0.000000
   88       60.279200   0.000000
   89       60.387656   0.000000
   90       60.597639   0.000000
   91       61.673925   0.000000
   92       61.772436   0.000000
   93       62.000468   0.000000
   94       62.501617   0.000000
   95       62.980127   0.000000
   96       63.244816   0.000000
   97       63.681053   0.000000
   98       64.071220   0.000000
   99       64.508573   0.000000
  100       64.595686   0.000000
  101       64.859364   0.000000
  102       65.027078   0.000000
  103       65.651917   0.000000
  104       65.926576   0.000000
  105       66.434188   0.000000
  106       67.085991   0.000000
  107       67.717520   0.000000
  108       67.834352   0.000000
  109       68.473876   0.000000
  110       68.483828   0.000000
  111       68.882473   0.000000
  112       70.609099   0.000000
  113       70.808908   0.000000
  114       70.909604   0.000000
  115       71.481666   0.000000
  116       71.951204   0.000000
  117       72.042710   0.000000
  118       72.130048   0.000000
  119       72.285302   0.000000
  120       72.395425   0.000000
  121       72.718510   0.000000
  122       72.810421   0.000000
  123       73.556770   0.000000
  124       73.823081   0.000000
  125       74.087712   0.000000
  126       74.163734   0.000000
  127       74.535667   0.000000
  128       74.597196   0.000000
 
  0.4062500E+00  0.3125000E-01  0.0000000E+00  0.1562500E-01
    1      -17.719571   1.000000
    2      -14.116733   1.000000
    3       -8.783032   1.000000
    4       -5.276773   1.000000
    5        0.606192   0.000000
    6        5.430133   0.000000
    7        6.967306   0.000000
    8        7.891541   0.000000
    9        8.543540   0.000000
   10       10.070490   0.000000
   11       10.867108   0.000000
   12       11.848013   0.000000
   13       12.565275   0.000000
   14       13.510881   0.000000
   15       13.779219   0.000000
   16       14.678570   0.000000
   17       14.967142   0.000000
   18       15.633061   0.000000
   19       16.757440   0.000000
   20       17.278354   0.000000
   21       18.858819   0.000000
   22       19.036392   0.000000
   23       19.674847   0.000000
   24       19.720377   0.000000
   25       21.073381   0.000000
   26       21.604464   0.000000
   27       24.368082   0.000000
   28       24.390574   0.000000
   29       24.732521   0.000000
   30       25.629457   0.000000
   31       26.171432   0.000000
   32       26.351060   0.000000
   33       26.477507   0.000000
   34       27.313636   0.000000
   35       28.101823   0.000000
   36       28.293759   0.000000
   37       28.775703   0.000000
   38       28.841073   0.000000
   39       29.208742   0.000000
   40       30.431500   0.000000
   41       31.249752   0.000000
   42       31.279826   0.000000
   43       31.965490   0.000000
   44       32.314211   0.000000
   45       32.796233   0.000000
   46       33.670361   0.000000
   47       34.797978   0.000000
   48       34.874051   0.000000
   49       35.276177   0.000000
   50       36.416013   0.000000
   51       36.724921   0.000000
   52       38.150953   0.000000
   53       38.600250   0.000000
   54       39.974782   0.000000
   55       40.382616   0.000000
   56       40.809405   0.000000
   57       41.966788   0.000000
   58       42.629698   0.000000
   59       43.838431   0.000000
   60       44.535887   0.000000
   61       45.277088   0.000000
   62       46.594585   0.000000
   63       46.922962   0.000000
   64       48.025638   0.000000
   65       48.172750   0.000000
   66       49.545314   0.000000
   67       50.427572   0.000000
   68       50.551336   0.000000
   69       51.621965   0.000000
   70       52.728631   0.000000
   71       53.134672   0.000000
   72       53.710931   0.000000
   73       53.789587   0.000000
   74       54.723369   0.000000
   75       54.905206   0.000000
   76       54.995563   0.000000
   77       55.808409   0.000000
   78       55.894007   0.000000
   79       56.382371   0.000000
   80       57.221609   0.000000
   81       58.331390   0.000000
   82       58.687976   0.000000
   83       59.368951   0.000000
   84       59.574308   0.000000
   85       59.664211   0.000000
   86       59.705433   0.000000
   87       59.989231   0.000000
   88       60.513264   0.000000
   89       61.368567   0.000000
   90       61.500958   0.000000
   91       61.636759   0.000000
   92       61.779459   0.000000
   93       62.780942   0.000000
   94       63.049514   0.000000
   95       64.216948   0.000000
   96       64.431392   0.000000
   97       64.569219   0.000000
   98       65.000561   0.000000
   99       65.678865   0.000000
  100       65.867623   0.000000
  101       66.419441   0.000000
  102       66.529746   0.000000
  103       66.566303   0.000000
  104       66.789618   0.000000
  105       67.101292   0.000000
  106       67.397638   0.000000
  107       67.508623   0.000000
  108       67.644280   0.000000
  109       69.159049   0.000000
  110       69.281002   0.000000
  111       69.554811   0.000000
  112       69.718689   0.000000
  113       70.004076   0.000000
  114       70.358911   0.000000
  115       71.165704   0.000000
  116       71.184261   0.000000
  117       71.450087   0.000000
  118       71.525646   0.000000
  119       71.834781   0.000000
  120       71.888943   0.000000
  121       72.090245   0.000000