Automatically generated mesh
      72
Reciprocal lattice
    0.03125000000000    0.03125000000000    0.00000000000000             2
    0.09375000000000    0.03125000000000    0.00000000000000             4
    0.15625000000000    0.03125000000000    0.00000000000000             4
    0.21875000000000    0.03125000000000    0.00000000000000             4
    0.28125000000000    0.03125000000000    0.00000000000000             4
    0.34375000000000    0.03125000000000    0.00000000000000             4
    0.40625000000000    0.03125000000000    0.00000000000000             4
    0.46875000000000    0.03125000000000    0.00000000000000             4
   -0.46875000000000    0.03125000000000    0.00000000000000             4
   -0.40625000000000    0.03125000000000    0.00000000000000             4
   -0.34375000000000    0.03125000000000    0.00000000000000             4
   -0.28125000000000    0.03125000000000    0.00000000000000             4
   -0.21875000000000    0.03125000000000    0.00000000000000             4
   -0.15625000000000    0.03125000000000    0.00000000000000             4
   -0.09375000000000    0.03125000000000    0.00000000000000             4
   -0.03125000000000    0.03125000000000    0.00000000000000             2
    0.09375000000000    0.09375000000000    0.00000000000000             2
    0.15625000000000    0.09375000000000    0.00000000000000             4
    0.21875000000000    0.09375000000000    0.00000000000000             4
    0.28125000000000    0.09375000000000    0.00000000000000             4
    0.34375000000000    0.09375000000000    0.00000000000000             4
    0.40625000000000    0.09375000000000    0.00000000000000             4
    0.46875000000000    0.09375000000000    0.00000000000000             4
   -0.46875000000000    0.09375000000000    0.00000000000000             4
   -0.40625000000000    0.09375000000000    0.00000000000000             4
   -0.34375000000000    0.09375000000000    0.00000000000000             4
   -0.28125000000000    0.09375000000000    0.00000000000000             4
   -0.21875000000000    0.09375000000000    0.00000000000000             4
   -0.15625000000000    0.09375000000000    0.00000000000000             4
   -0.09375000000000    0.09375000000000    0.00000000000000             2
    0.15625000000000    0.15625000000000    0.00000000000000             2
    0.21875000000000    0.15625000000000    0.00000000000000             4
    0.28125000000000    0.15625000000000    0.00000000000000             4
    0.34375000000000    0.15625000000000    0.00000000000000             4
    0.40625000000000    0.15625000000000    0.00000000000000             4
    0.46875000000000    0.15625000000000    0.00000000000000             4
   -0.46875000000000    0.15625000000000    0.00000000000000             4
   -0.40625000000000    0.15625000000000    0.00000000000000             4
   -0.34375000000000    0.15625000000000    0.00000000000000             4
   -0.28125000000000    0.15625000000000    0.00000000000000             4
   -0.21875000000000    0.15625000000000    0.00000000000000             4
   -0.15625000000000    0.15625000000000    0.00000000000000             2
    0.21875000000000    0.21875000000000    0.00000000000000             2
    0.28125000000000    0.21875000000000    0.00000000000000             4
    0.34375000000000    0.21875000000000    0.00000000000000             4
    0.40625000000000    0.21875000000000    0.00000000000000             4
    0.46875000000000    0.21875000000000    0.00000000000000             4
   -0.46875000000000    0.21875000000000    0.00000000000000             4
   -0.40625000000000    0.21875000000000    0.00000000000000             4
   -0.34375000000000    0.21875000000000    0.00000000000000             4
   -0.28125000000000    0.21875000000000    0.00000000000000             4
   -0.21875000000000    0.21875000000000    0.00000000000000             2
    0.28125000000000    0.28125000000000    0.00000000000000             2
    0.34375000000000    0.28125000000000    0.00000000000000             4
    0.40625000000000    0.28125000000000    0.00000000000000             4
    0.46875000000000    0.28125000000000    0.00000000000000             4
   -0.46875000000000    0.28125000000000    0.00000000000000             4
   -0.40625000000000    0.28125000000000    0.00000000000000             4
   -0.34375000000000    0.28125000000000    0.00000000000000             4
   -0.28125000000000    0.28125000000000    0.00000000000000             2
    0.34375000000000    0.34375000000000    0.00000000000000             2
    0.40625000000000    0.34375000000000    0.00000000000000             4
    0.46875000000000    0.34375000000000    0.00000000000000             4
   -0.46875000000000    0.34375000000000    0.00000000000000             4
   -0.40625000000000    0.34375000000000    0.00000000000000             4
   -0.34375000000000    0.34375000000000    0.00000000000000             2
    0.40625000000000    0.40625000000000    0.00000000000000             2
    0.46875000000000    0.40625000000000    0.00000000000000             4
   -0.46875000000000    0.40625000000000    0.00000000000000             4
   -0.40625000000000    0.40625000000000    0.00000000000000             2
    0.46875000000000    0.46875000000000    0.00000000000000             2
   -0.46875000000000    0.46875000000000    0.00000000000000             2
