 vasp.5.4.4.18Apr17-6-g9f103f2a35 (build Nov 22 2017 20:28:56) complex          
  
 executed on             LinuxIFC date 2019.10.06  19:57:13
 running on   28 total cores
 distrk:  each k-point on   28 cores,    1 groups
 distr:  one band on NCORES_PER_BAND=   7 cores,    4 groups


--------------------------------------------------------------------------------------------------------


 INCAR:
 POTCAR:   PAW_PBE C 08Apr2002                    
 POTCAR:   PAW_PBE C 08Apr2002                    
   VRHFIN =C: s2p2                                                              
   LEXCH  = PE                                                                  
   EATOM  =   147.1560 eV,   10.8157 Ry                                         
                                                                                
   TITEL  = PAW_PBE C 08Apr2002                                                 
   LULTRA =        F    use ultrasoft PP ?                                      
   IUNSCR =        0    unscreen: 0-lin 1-nonlin 2-no                           
   RPACOR =     .000    partial core radius                                     
   POMASS =   12.011; ZVAL   =    4.000    mass and valenz                      
   RCORE  =    1.500    outmost cutoff radius                                   
   RWIGS  =    1.630; RWIGS  =     .863    wigner-seitz radius (au A)           
   ENMAX  =  400.000; ENMIN  =  300.000 eV                                      
   ICORE  =        2    local potential                                         
   LCOR   =        T    correct aug charges                                     
   LPAW   =        T    paw PP                                                  
   EAUG   =  644.873                                                            
   DEXC   =     .000                                                            
   RMAX   =    2.266    core radius for proj-oper                               
   RAUG   =    1.300    factor for augmentation sphere                          
   RDEP   =    1.501    radius for radial grids                                 
   RDEPT  =    1.300    core radius for aug-charge                              
   QCUT   =   -5.516; QGAM   =   11.032    optimization parameters              
                                                                                
   Description                                                                  
     l     E      TYP  RCUT    TYP  RCUT                                        
     0   .000     23  1.200                                                     
     0   .000     23  1.200                                                     
     1   .000     23  1.500                                                     
     1  2.500     23  1.500                                                     
     2   .000      7  1.500                                                     
  local pseudopotential read in
  atomic valenz-charges read in
  non local Contribution for L=           0  read in
    real space projection operators read in
  non local Contribution for L=           0  read in
    real space projection operators read in
  non local Contribution for L=           1  read in
    real space projection operators read in
  non local Contribution for L=           1  read in
    real space projection operators read in
    PAW grid and wavefunctions read in
 
   number of l-projection  operators is LMAX  =           4
   number of lm-projection operators is LMMAX =           8
 
 PAW_PBE C 08Apr2002                    :
 energy of atom  1       EATOM= -147.1560
 kinetic energy error for atom=    0.0071 (will be added to EATOM!!)
 
 
 POSCAR:  C                                      
  positions in direct lattice
  No initial velocities read in
 exchange correlation table for  LEXCH =        8
   RHO(1)=    0.500       N(1)  =     2000
   RHO(2)=  100.500       N(2)  =     4000
 


--------------------------------------------------------------------------------------------------------


 ion  position               nearest neighbor table
   1  0.667  0.333  0.500-   2 1.39   2 1.39   2 1.43
   2  0.333  0.667  0.500-   1 1.39   1 1.39   1 1.43
 
  LATTYP: Found a base centered orthorhombic cell.
 ALAT       =     2.3943614089
 B/A-ratio  =     1.7856238821
 C/A-ratio  =     6.4828950572
  
  Lattice vectors:
  
 A1 = (   1.1971807044,  -2.1377144570,   0.0000000000)
 A2 = (   1.1971807044,   2.1377144570,   0.0000000000)
 A3 = (   0.0000000000,   0.0000000000,  15.5223937426)


Analysis of symmetry for initial positions (statically):
=====================================================================
 Subroutine PRICEL returns:
 Original cell was already a primitive cell.
 

 Routine SETGRP: Setting up the symmetry group for a 
 base centered orthorhombic supercell.


 Subroutine GETGRP returns: Found  8 space group operations
 (whereof  8 operations were pure point group operations)
 out of a pool of  8 trial point group operations.


The static configuration has the point symmetry D_2h.


Analysis of symmetry for dynamics (positions and initial velocities):
=====================================================================
 Subroutine PRICEL returns:
 Original cell was already a primitive cell.
 

 Routine SETGRP: Setting up the symmetry group for a 
 base centered orthorhombic supercell.


 Subroutine GETGRP returns: Found  8 space group operations
 (whereof  8 operations were pure point group operations)
 out of a pool of  8 trial point group operations.


The dynamic configuration has the point symmetry D_2h.


 Subroutine INISYM returns: Found  8 space group operations
 (whereof  8 operations are pure point group operations),
 and found     1 'primitive' translations

 
 
 KPOINTS: A                                       

Automatic generation of k-mesh.
Space group operators:
 irot       det(A)        alpha          n_x          n_y          n_z        tau_x        tau_y        tau_z
    1     1.000000     0.000000     1.000000     0.000000     0.000000     0.000000     0.000000     0.000000
    2    -1.000000     0.000000     1.000000     0.000000     0.000000     0.000000     0.000000     0.000000
    3     1.000000   179.999999     0.000000     0.000000     1.000000     0.000000     0.000000     0.000000
    4    -1.000000   179.999999     0.000000     0.000000     1.000000     0.000000     0.000000     0.000000
    5     1.000000   180.000000     0.000000     1.000000     0.000000     0.000000     0.000000     0.000000
    6    -1.000000   180.000000     0.000000     1.000000     0.000000     0.000000     0.000000     0.000000
    7     1.000000   180.000000     1.000000     0.000000     0.000000     0.000000     0.000000     0.000000
    8    -1.000000   180.000000     1.000000     0.000000     0.000000     0.000000     0.000000     0.000000
 
 Subroutine IBZKPT returns following result:
 ===========================================
 
 Found     72 irreducible k-points:
 
 Following reciprocal coordinates:
            Coordinates               Weight
  0.031250  0.031250  0.000000      2.000000
  0.093750  0.031250  0.000000      4.000000
  0.156250  0.031250  0.000000      4.000000
  0.218750  0.031250  0.000000      4.000000
  0.281250  0.031250  0.000000      4.000000
  0.343750  0.031250  0.000000      4.000000
  0.406250  0.031250  0.000000      4.000000
  0.468750  0.031250  0.000000      4.000000
 -0.468750  0.031250  0.000000      4.000000
 -0.406250  0.031250  0.000000      4.000000
 -0.343750  0.031250  0.000000      4.000000
 -0.281250  0.031250  0.000000      4.000000
 -0.218750  0.031250  0.000000      4.000000
 -0.156250  0.031250  0.000000      4.000000
 -0.093750  0.031250  0.000000      4.000000
 -0.031250  0.031250  0.000000      2.000000
  0.093750  0.093750  0.000000      2.000000
  0.156250  0.093750  0.000000      4.000000
  0.218750  0.093750  0.000000      4.000000
  0.281250  0.093750  0.000000      4.000000
  0.343750  0.093750  0.000000      4.000000
  0.406250  0.093750  0.000000      4.000000
  0.468750  0.093750  0.000000      4.000000
 -0.468750  0.093750  0.000000      4.000000
 -0.406250  0.093750  0.000000      4.000000
 -0.343750  0.093750  0.000000      4.000000
 -0.281250  0.093750  0.000000      4.000000
 -0.218750  0.093750  0.000000      4.000000
 -0.156250  0.093750  0.000000      4.000000
 -0.093750  0.093750  0.000000      2.000000
  0.156250  0.156250  0.000000      2.000000
  0.218750  0.156250  0.000000      4.000000
  0.281250  0.156250  0.000000      4.000000
  0.343750  0.156250  0.000000      4.000000
  0.406250  0.156250  0.000000      4.000000
  0.468750  0.156250  0.000000      4.000000
 -0.468750  0.156250  0.000000      4.000000
 -0.406250  0.156250  0.000000      4.000000
 -0.343750  0.156250  0.000000      4.000000
 -0.281250  0.156250  0.000000      4.000000
 -0.218750  0.156250  0.000000      4.000000
 -0.156250  0.156250  0.000000      2.000000
  0.218750  0.218750  0.000000      2.000000
  0.281250  0.218750  0.000000      4.000000
  0.343750  0.218750  0.000000      4.000000
  0.406250  0.218750  0.000000      4.000000
  0.468750  0.218750  0.000000      4.000000
 -0.468750  0.218750  0.000000      4.000000
 -0.406250  0.218750  0.000000      4.000000
 -0.343750  0.218750  0.000000      4.000000
 -0.281250  0.218750  0.000000      4.000000
 -0.218750  0.218750  0.000000      2.000000
  0.281250  0.281250  0.000000      2.000000
  0.343750  0.281250  0.000000      4.000000
  0.406250  0.281250  0.000000      4.000000
  0.468750  0.281250  0.000000      4.000000
 -0.468750  0.281250  0.000000      4.000000
 -0.406250  0.281250  0.000000      4.000000
 -0.343750  0.281250  0.000000      4.000000
 -0.281250  0.281250  0.000000      2.000000
  0.343750  0.343750  0.000000      2.000000
  0.406250  0.343750  0.000000      4.000000
  0.468750  0.343750  0.000000      4.000000
 -0.468750  0.343750  0.000000      4.000000
 -0.406250  0.343750  0.000000      4.000000
 -0.343750  0.343750  0.000000      2.000000
  0.406250  0.406250  0.000000      2.000000
  0.468750  0.406250  0.000000      4.000000
 -0.468750  0.406250  0.000000      4.000000
 -0.406250  0.406250  0.000000      2.000000
  0.468750  0.468750  0.000000      2.000000
 -0.468750  0.468750  0.000000      2.000000
 
 Following cartesian coordinates:
            Coordinates               Weight
  0.026103  0.000000  0.000000      2.000000
  0.052206 -0.014618  0.000000      4.000000
  0.078309 -0.029237  0.000000      4.000000
  0.104412 -0.043855  0.000000      4.000000
  0.130515 -0.058474  0.000000      4.000000
  0.156618 -0.073092  0.000000      4.000000
  0.182721 -0.087710  0.000000      4.000000
  0.208824 -0.102329  0.000000      4.000000
 -0.182721  0.116947  0.000000      4.000000
 -0.156618  0.102329  0.000000      4.000000
 -0.130515  0.087710  0.000000      4.000000
 -0.104412  0.073092  0.000000      4.000000
 -0.078309  0.058474  0.000000      4.000000
 -0.052206  0.043855  0.000000      4.000000
 -0.026103  0.029237  0.000000      4.000000
  0.000000  0.014618  0.000000      2.000000
  0.078309  0.000000  0.000000      2.000000
  0.104412 -0.014618  0.000000      4.000000
  0.130515 -0.029237  0.000000      4.000000
  0.156618 -0.043855  0.000000      4.000000
  0.182721 -0.058474  0.000000      4.000000
  0.208824 -0.073092  0.000000      4.000000
  0.234927 -0.087710  0.000000      4.000000
 -0.156618  0.131566  0.000000      4.000000
 -0.130515  0.116947  0.000000      4.000000
 -0.104412  0.102329  0.000000      4.000000
 -0.078309  0.087710  0.000000      4.000000
 -0.052206  0.073092  0.000000      4.000000
 -0.026103  0.058474  0.000000      4.000000
  0.000000  0.043855  0.000000      2.000000
  0.130515  0.000000  0.000000      2.000000
  0.156618 -0.014618  0.000000      4.000000
  0.182721 -0.029237  0.000000      4.000000
  0.208824 -0.043855  0.000000      4.000000
  0.234927 -0.058474  0.000000      4.000000
  0.261030 -0.073092  0.000000      4.000000
 -0.130515  0.146184  0.000000      4.000000
 -0.104412  0.131566  0.000000      4.000000
 -0.078309  0.116947  0.000000      4.000000
 -0.052206  0.102329  0.000000      4.000000
 -0.026103  0.087710  0.000000      4.000000
  0.000000  0.073092  0.000000      2.000000
  0.182721  0.000000  0.000000      2.000000
  0.208824 -0.014618  0.000000      4.000000
  0.234927 -0.029237  0.000000      4.000000
  0.261030 -0.043855  0.000000      4.000000
  0.287133 -0.058474  0.000000      4.000000
 -0.104412  0.160803  0.000000      4.000000
 -0.078309  0.146184  0.000000      4.000000
 -0.052206  0.131566  0.000000      4.000000
 -0.026103  0.116947  0.000000      4.000000
  0.000000  0.102329  0.000000      2.000000
  0.234927  0.000000  0.000000      2.000000
  0.261030 -0.014618  0.000000      4.000000
  0.287133 -0.029237  0.000000      4.000000
  0.313236 -0.043855  0.000000      4.000000
 -0.078309  0.175421  0.000000      4.000000
 -0.052206  0.160803  0.000000      4.000000
 -0.026103  0.146184  0.000000      4.000000
  0.000000  0.131566  0.000000      2.000000
  0.287133  0.000000  0.000000      2.000000
  0.313236 -0.014618  0.000000      4.000000
  0.339339 -0.029237  0.000000      4.000000
 -0.052206  0.190039  0.000000      4.000000
 -0.026103  0.175421  0.000000      4.000000
  0.000000  0.160803  0.000000      2.000000
  0.339339  0.000000  0.000000      2.000000
  0.365442 -0.014618  0.000000      4.000000
 -0.026103  0.204658  0.000000      4.000000
  0.000000  0.190039  0.000000      2.000000
  0.391545  0.000000  0.000000      2.000000
  0.000000  0.219276  0.000000      2.000000
 


--------------------------------------------------------------------------------------------------------




 Dimension of arrays:
   k-points           NKPTS =     72   k-points in BZ     NKDIM =     72   number of bands    NBANDS=    128
   number of dos      NEDOS =    301   number of ions     NIONS =      2
   non local maximal  LDIM  =      4   non local SUM 2l+1 LMDIM =      8
   total plane-waves  NPLWV =  38880
   max r-space proj   IRMAX =      1   max aug-charges    IRDMAX=   5974
   dimension x,y,z NGX =    18 NGY =   18 NGZ =  120
   dimension x,y,z NGXF=    36 NGYF=   36 NGZF=  240
   support grid    NGXF=    36 NGYF=   36 NGZF=  240
   ions per type =               2
   NGX,Y,Z   is equivalent  to a cutoff of  12.21, 12.21, 12.85 a.u.
   NGXF,Y,Z  is equivalent  to a cutoff of  24.43, 24.43, 25.70 a.u.

 SYSTEM =  unknown system                          
 POSCAR =   C                                      

 Startparameter for this run:
   NWRITE =      2    write-flag & timer
   PREC   = accura    normal or accurate (medium, high low for compatibility)
   ISTART =      0    job   : 0-new  1-cont  2-samecut
   ICHARG =      2    charge: 1-file 2-atom 10-const
   ISPIN  =      1    spin polarized calculation?
   LNONCOLLINEAR =      F non collinear calculations
   LSORBIT =      F    spin-orbit coupling
   INIWAV =      1    electr: 0-lowe 1-rand  2-diag
   LASPH  =      F    aspherical Exc in radial PAW
   METAGGA=      F    non-selfconsistent MetaGGA calc.

 Electronic Relaxation 1
   ENCUT  =  520.0 eV  38.22 Ry    6.18 a.u.   4.56  4.56 28.86*2*pi/ulx,y,z
   ENINI  =  520.0     initial cutoff
   ENAUG  =  644.9 eV  augmentation charge cutoff
   NELM   =     60;   NELMIN=  2; NELMDL= -5     # of ELM steps 
   EDIFF  = 0.1E-05   stopping-criterion for ELM
   LREAL  =      F    real-space projection
   NLSPLINE    = F    spline interpolate recip. space projectors
   LCOMPAT=      F    compatible to vasp.4.4
   GGA_COMPAT  = T    GGA compatible to vasp.4.4-vasp.4.6
   LMAXPAW     = -100 max onsite density
   LMAXMIX     =    2 max onsite mixed and CHGCAR
   VOSKOWN=      0    Vosko Wilk Nusair interpolation
   ROPT   =    0.00000
 Ionic relaxation
   EDIFFG = 0.1E-04   stopping-criterion for IOM
   NSW    =     50    number of steps for IOM
   NBLOCK =      1;   KBLOCK =     50    inner block; outer block 
   IBRION =      2    ionic relax: 0-MD 1-quasi-New 2-CG
   NFREE  =      1    steps in history (QN), initial steepest desc. (CG)
   ISIF   =      2    stress and relaxation
   IWAVPR =     11    prediction:  0-non 1-charg 2-wave 3-comb
   ISYM   =      2    0-nonsym 1-usesym 2-fastsym
   LCORR  =      T    Harris-Foulkes like correction to forces

   POTIM  = 0.1000    time-step for ionic-motion
   TEIN   =    0.0    initial temperature
   TEBEG  =    0.0;   TEEND  =   0.0 temperature during run
   SMASS  =  -3.00    Nose mass-parameter (am)
   estimated Nose-frequenzy (Omega)   =  0.10E-29 period in steps =****** mass=  -0.137E-27a.u.
   SCALEE = 1.0000    scale energy and forces
   NPACO  =    256;   APACO  = 16.0  distance and # of slots for P.C.
   PSTRESS=    0.0 pullay stress

  Mass of Ions in am
   POMASS =  12.01
  Ionic Valenz
   ZVAL   =   4.00
  Atomic Wigner-Seitz radii
   RWIGS  =  -1.00
  virtual crystal weights 
   VCA    =   1.00
   NELECT =       8.0000    total number of electrons
   NUPDOWN=      -1.0000    fix difference up-down

 DOS related values:
   EMIN   =  10.00;   EMAX   =-10.00  energy-range for DOS
   EFERMI =   0.00
   ISMEAR =     0;   SIGMA  =   0.10  broadening in eV -4-tet -1-fermi 0-gaus

 Electronic relaxation 2 (details)
   IALGO  =     38    algorithm
   LDIAG  =      T    sub-space diagonalisation (order eigenvalues)
   LSUBROT=      F    optimize rotation matrix (better conditioning)
   TURBO    =      0    0=normal 1=particle mesh
   IRESTART =      0    0=no restart 2=restart with 2 vectors
   NREBOOT  =      0    no. of reboots
   NMIN     =      0    reboot dimension
   EREF     =   0.00    reference energy to select bands
   IMIX   =      4    mixing-type and parameters
     AMIX     =   0.40;   BMIX     =  1.00
     AMIX_MAG =   1.60;   BMIX_MAG =  1.00
     AMIN     =   0.10
     WC   =   100.;   INIMIX=   1;  MIXPRE=   1;  MAXMIX= -45

 Intra band minimization:
   WEIMIN = 0.0010     energy-eigenvalue tresh-hold
   EBREAK =  0.20E-08  absolut break condition
   DEPER  =   0.30     relativ break condition  

   TIME   =   0.40     timestep for ELM

  volume/ion in A,a.u.               =      39.73       268.08
  Fermi-wavevector in a.u.,A,eV,Ry     =   0.761621  1.439255  7.892280  0.580066
  Thomas-Fermi vector in A             =   1.860901
 
 Write flags
   LWAVE        =      F    write WAVECAR
   LDOWNSAMPLE  =      F    k-point downsampling of WAVECAR
   LCHARG       =      F    write CHGCAR
   LVTOT        =      F    write LOCPOT, total local potential
   LVHAR        =      F    write LOCPOT, Hartree potential only
   LELF         =      F    write electronic localiz. function (ELF)
   LORBIT       =      0    0 simple, 1 ext, 2 COOP (PROOUT), +10 PAW based schemes


 Dipole corrections
   LMONO  =      F    monopole corrections only (constant potential shift)
   LDIPOL =      F    correct potential (dipole corrections)
   IDIPOL =      0    1-x, 2-y, 3-z, 4-all directions 
   EPSILON=  1.0000000 bulk dielectric constant

 Exchange correlation treatment:
   GGA     =    --    GGA type
   LEXCH   =     8    internal setting for exchange type
   VOSKOWN=      0    Vosko Wilk Nusair interpolation
   LHFCALC =     F    Hartree Fock is set to
   LHFONE  =     F    Hartree Fock one center treatment
   AEXX    =    0.0000 exact exchange contribution

 Linear response parameters
   LEPSILON=     F    determine dielectric tensor
   LRPA    =     F    only Hartree local field effects (RPA)
   LNABLA  =     F    use nabla operator in PAW spheres
   LVEL    =     F    velocity operator in full k-point grid
   LINTERFAST=   F  fast interpolation
   KINTER  =     0    interpolate to denser k-point grid
   CSHIFT  =0.1000    complex shift for real part using Kramers Kronig
   OMEGAMAX=  -1.0    maximum frequency
   DEG_THRESHOLD= 0.2000000E-02 threshold for treating states as degnerate
   RTIME   =   -0.100 relaxation time in fs
  (WPLASMAI=    0.000 imaginary part of plasma frequency in eV, 0.658/RTIME)
   DFIELD  = 0.0000000 0.0000000 0.0000000 field for delta impulse in time
 
 Orbital magnetization related:
   ORBITALMAG=     F  switch on orbital magnetization
   LCHIMAG   =     F  perturbation theory with respect to B field
   DQ        =  0.001000  dq finite difference perturbation B field
   LLRAUG    =     F  two centre corrections for induced B field



--------------------------------------------------------------------------------------------------------


 conjugate gradient relaxation of ions
 charge density and potential will be updated during run
 non-spin polarized calculation
 Variant of blocked Davidson
 Davidson routine will perform the subspace rotation
 perform sub-space diagonalisation
    after iterative eigenvector-optimisation
 modified Broyden-mixing scheme, WC =      100.0
 initial mixing is a Kerker type mixing with AMIX =  0.4000 and BMIX =      1.0000
 Hartree-type preconditioning will be used
 using additional bands          124
 reciprocal scheme for non local part
 calculate Harris-corrections to forces 
   (improved forces if not selfconsistent)
 use gradient corrections 
 use of overlap-Matrix (Vanderbilt PP)
 Gauss-broadening in eV      SIGMA  =   0.10


--------------------------------------------------------------------------------------------------------


  energy-cutoff  :      520.00
  volume of cell :       79.45
      direct lattice vectors                 reciprocal lattice vectors
     1.197180704 -2.137714457  0.000000000     0.417647894 -0.233894662  0.000000000
     1.197180704  2.137714457  0.000000000     0.417647894  0.233894662  0.000000000
     0.000000000  0.000000000 15.522393743     0.000000000  0.000000000  0.064423053

  length of vectors
     2.450115250  2.450115250 15.522393743     0.478682020  0.478682020  0.064423053


 
 k-points in units of 2pi/SCALE and weight: A                                       
   0.02610299  0.00000000  0.00000000       0.008
   0.05220599 -0.01461842  0.00000000       0.016
   0.07830898 -0.02923683  0.00000000       0.016
   0.10441197 -0.04385525  0.00000000       0.016
   0.13051497 -0.05847367  0.00000000       0.016
   0.15661796 -0.07309208  0.00000000       0.016
   0.18272095 -0.08771050  0.00000000       0.016
   0.20882395 -0.10232891  0.00000000       0.016
  -0.18272095  0.11694733  0.00000000       0.016
  -0.15661796  0.10232891  0.00000000       0.016
  -0.13051497  0.08771050  0.00000000       0.016
  -0.10441197  0.07309208  0.00000000       0.016
  -0.07830898  0.05847367  0.00000000       0.016
  -0.05220599  0.04385525  0.00000000       0.016
  -0.02610299  0.02923683  0.00000000       0.016
   0.00000000  0.01461842  0.00000000       0.008
   0.07830898  0.00000000  0.00000000       0.008
   0.10441197 -0.01461842  0.00000000       0.016
   0.13051497 -0.02923683  0.00000000       0.016
   0.15661796 -0.04385525  0.00000000       0.016
   0.18272095 -0.05847367  0.00000000       0.016
   0.20882395 -0.07309208  0.00000000       0.016
   0.23492694 -0.08771050  0.00000000       0.016
  -0.15661796  0.13156575  0.00000000       0.016
  -0.13051497  0.11694733  0.00000000       0.016
  -0.10441197  0.10232891  0.00000000       0.016
  -0.07830898  0.08771050  0.00000000       0.016
  -0.05220599  0.07309208  0.00000000       0.016
  -0.02610299  0.05847367  0.00000000       0.016
   0.00000000  0.04385525  0.00000000       0.008
   0.13051497  0.00000000  0.00000000       0.008
   0.15661796 -0.01461842  0.00000000       0.016
   0.18272095 -0.02923683  0.00000000       0.016
   0.20882395 -0.04385525  0.00000000       0.016
   0.23492694 -0.05847367  0.00000000       0.016
   0.26102993 -0.07309208  0.00000000       0.016
  -0.13051497  0.14618416  0.00000000       0.016
  -0.10441197  0.13156575  0.00000000       0.016
  -0.07830898  0.11694733  0.00000000       0.016
  -0.05220599  0.10232891  0.00000000       0.016
  -0.02610299  0.08771050  0.00000000       0.016
   0.00000000  0.07309208  0.00000000       0.008
   0.18272095  0.00000000  0.00000000       0.008
   0.20882395 -0.01461842  0.00000000       0.016
   0.23492694 -0.02923683  0.00000000       0.016
   0.26102993 -0.04385525  0.00000000       0.016
   0.28713293 -0.05847367  0.00000000       0.016
  -0.10441197  0.16080258  0.00000000       0.016
  -0.07830898  0.14618416  0.00000000       0.016
  -0.05220599  0.13156575  0.00000000       0.016
  -0.02610299  0.11694733  0.00000000       0.016
   0.00000000  0.10232891  0.00000000       0.008
   0.23492694  0.00000000  0.00000000       0.008
   0.26102993 -0.01461842  0.00000000       0.016
   0.28713293 -0.02923683  0.00000000       0.016
   0.31323592 -0.04385525  0.00000000       0.016
  -0.07830898  0.17542100  0.00000000       0.016
  -0.05220599  0.16080258  0.00000000       0.016
  -0.02610299  0.14618416  0.00000000       0.016
   0.00000000  0.13156575  0.00000000       0.008
   0.28713293  0.00000000  0.00000000       0.008
   0.31323592 -0.01461842  0.00000000       0.016
   0.33933891 -0.02923683  0.00000000       0.016
  -0.05220599  0.19003941  0.00000000       0.016
  -0.02610299  0.17542100  0.00000000       0.016
   0.00000000  0.16080258  0.00000000       0.008
   0.33933891  0.00000000  0.00000000       0.008
   0.36544191 -0.01461842  0.00000000       0.016
  -0.02610299  0.20465783  0.00000000       0.016
   0.00000000  0.19003941  0.00000000       0.008
   0.39154490  0.00000000  0.00000000       0.008
   0.00000000  0.21927625  0.00000000       0.008
 
 k-points in reciprocal lattice and weights: A                                       
   0.03125000  0.03125000  0.00000000       0.008
   0.09375000  0.03125000  0.00000000       0.016
   0.15625000  0.03125000  0.00000000       0.016
   0.21875000  0.03125000  0.00000000       0.016
   0.28125000  0.03125000  0.00000000       0.016
   0.34375000  0.03125000  0.00000000       0.016
   0.40625000  0.03125000  0.00000000       0.016
   0.46875000  0.03125000  0.00000000       0.016
  -0.46875000  0.03125000  0.00000000       0.016
  -0.40625000  0.03125000  0.00000000       0.016
  -0.34375000  0.03125000  0.00000000       0.016
  -0.28125000  0.03125000  0.00000000       0.016
  -0.21875000  0.03125000  0.00000000       0.016
  -0.15625000  0.03125000  0.00000000       0.016
  -0.09375000  0.03125000  0.00000000       0.016
  -0.03125000  0.03125000  0.00000000       0.008
   0.09375000  0.09375000  0.00000000       0.008
   0.15625000  0.09375000  0.00000000       0.016
   0.21875000  0.09375000  0.00000000       0.016
   0.28125000  0.09375000  0.00000000       0.016
   0.34375000  0.09375000  0.00000000       0.016
   0.40625000  0.09375000  0.00000000       0.016
   0.46875000  0.09375000  0.00000000       0.016
  -0.46875000  0.09375000  0.00000000       0.016
  -0.40625000  0.09375000  0.00000000       0.016
  -0.34375000  0.09375000  0.00000000       0.016
  -0.28125000  0.09375000  0.00000000       0.016
  -0.21875000  0.09375000  0.00000000       0.016
  -0.15625000  0.09375000  0.00000000       0.016
  -0.09375000  0.09375000  0.00000000       0.008
   0.15625000  0.15625000  0.00000000       0.008
   0.21875000  0.15625000  0.00000000       0.016
   0.28125000  0.15625000  0.00000000       0.016
   0.34375000  0.15625000  0.00000000       0.016
   0.40625000  0.15625000  0.00000000       0.016
   0.46875000  0.15625000  0.00000000       0.016
  -0.46875000  0.15625000  0.00000000       0.016
  -0.40625000  0.15625000  0.00000000       0.016
  -0.34375000  0.15625000  0.00000000       0.016
  -0.28125000  0.15625000  0.00000000       0.016
  -0.21875000  0.15625000  0.00000000       0.016
  -0.15625000  0.15625000  0.00000000       0.008
   0.21875000  0.21875000  0.00000000       0.008
   0.28125000  0.21875000  0.00000000       0.016
   0.34375000  0.21875000  0.00000000       0.016
   0.40625000  0.21875000  0.00000000       0.016
   0.46875000  0.21875000  0.00000000       0.016
  -0.46875000  0.21875000  0.00000000       0.016
  -0.40625000  0.21875000  0.00000000       0.016
  -0.34375000  0.21875000  0.00000000       0.016
  -0.28125000  0.21875000  0.00000000       0.016
  -0.21875000  0.21875000  0.00000000       0.008
   0.28125000  0.28125000  0.00000000       0.008
   0.34375000  0.28125000  0.00000000       0.016
   0.40625000  0.28125000  0.00000000       0.016
   0.46875000  0.28125000  0.00000000       0.016
  -0.46875000  0.28125000  0.00000000       0.016
  -0.40625000  0.28125000  0.00000000       0.016
  -0.34375000  0.28125000  0.00000000       0.016
  -0.28125000  0.28125000  0.00000000       0.008
   0.34375000  0.34375000  0.00000000       0.008
   0.40625000  0.34375000  0.00000000       0.016
   0.46875000  0.34375000  0.00000000       0.016
  -0.46875000  0.34375000  0.00000000       0.016
  -0.40625000  0.34375000  0.00000000       0.016
  -0.34375000  0.34375000  0.00000000       0.008
   0.40625000  0.40625000  0.00000000       0.008
   0.46875000  0.40625000  0.00000000       0.016
  -0.46875000  0.40625000  0.00000000       0.016
  -0.40625000  0.40625000  0.00000000       0.008
   0.46875000  0.46875000  0.00000000       0.008
  -0.46875000  0.46875000  0.00000000       0.008
 
 position of ions in fractional coordinates (direct lattice) 
   0.66666762  0.33333238  0.50000000
   0.33333238  0.66666762  0.50000000
 
 position of ions in cartesian coordinates  (Angst):
   1.19718070 -0.71257557  7.76119687
   1.19718070  0.71257557  7.76119687
 


--------------------------------------------------------------------------------------------------------


 k-point  1 :   0.0312 0.0312 0.0000  plane waves:    2151
 k-point  2 :   0.0938 0.0312 0.0000  plane waves:    2166
 k-point  3 :   0.1563 0.0312 0.0000  plane waves:    2169
 k-point  4 :   0.2188 0.0312 0.0000  plane waves:    2172
 k-point  5 :   0.2813 0.0312 0.0000  plane waves:    2145
 k-point  6 :   0.3438 0.0313 0.0000  plane waves:    2141
 k-point  7 :   0.4062 0.0312 0.0000  plane waves:    2129
 k-point  8 :   0.4688 0.0312 0.0000  plane waves:    2121
 k-point  9 :  -0.4688 0.0313 0.0000  plane waves:    2120
 k-point 10 :  -0.4062 0.0313 0.0000  plane waves:    2131
 k-point 11 :  -0.3438 0.0313 0.0000  plane waves:    2146
 k-point 12 :  -0.2812 0.0313 0.0000  plane waves:    2153
 k-point 13 :  -0.2188 0.0313 0.0000  plane waves:    2173
 k-point 14 :  -0.1562 0.0312 0.0000  plane waves:    2169
 k-point 15 :  -0.0938 0.0313 0.0000  plane waves:    2166
 k-point 16 :  -0.0313 0.0313 0.0000  plane waves:    2162
 k-point 17 :   0.0938 0.0938 0.0000  plane waves:    2165
 k-point 18 :   0.1562 0.0938 0.0000  plane waves:    2163
 k-point 19 :   0.2188 0.0937 0.0000  plane waves:    2155
 k-point 20 :   0.2812 0.0937 0.0000  plane waves:    2137
 k-point 21 :   0.3438 0.0937 0.0000  plane waves:    2141
 k-point 22 :   0.4062 0.0938 0.0000  plane waves:    2126
 k-point 23 :   0.4688 0.0938 0.0000  plane waves:    2126
 k-point 24 :  -0.4688 0.0938 0.0000  plane waves:    2113
 k-point 25 :  -0.4063 0.0938 0.0000  plane waves:    2147
 k-point 26 :  -0.3438 0.0938 0.0000  plane waves:    2143
 k-point 27 :  -0.2813 0.0938 0.0000  plane waves:    2161
 k-point 28 :  -0.2188 0.0938 0.0000  plane waves:    2165
 k-point 29 :  -0.1563 0.0938 0.0000  plane waves:    2164
 k-point 30 :  -0.0938 0.0938 0.0000  plane waves:    2160
 k-point 31 :   0.1563 0.1563 0.0000  plane waves:    2133
 k-point 32 :   0.2188 0.1562 0.0000  plane waves:    2133
 k-point 33 :   0.2813 0.1562 0.0000  plane waves:    2133
 k-point 34 :   0.3438 0.1562 0.0000  plane waves:    2120
 k-point 35 :   0.4063 0.1563 0.0000  plane waves:    2116
 k-point 36 :   0.4688 0.1563 0.0000  plane waves:    2130
 k-point 37 :  -0.4688 0.1562 0.0000  plane waves:    2124
 k-point 38 :  -0.4063 0.1563 0.0000  plane waves:    2133
 k-point 39 :  -0.3438 0.1563 0.0000  plane waves:    2151
 k-point 40 :  -0.2813 0.1563 0.0000  plane waves:    2161
 k-point 41 :  -0.2188 0.1563 0.0000  plane waves:    2171
 k-point 42 :  -0.1562 0.1562 0.0000  plane waves:    2176
 k-point 43 :   0.2188 0.2188 0.0000  plane waves:    2131
 k-point 44 :   0.2812 0.2188 0.0000  plane waves:    2106
 k-point 45 :   0.3438 0.2188 0.0000  plane waves:    2107
 k-point 46 :   0.4062 0.2188 0.0000  plane waves:    2125
 k-point 47 :   0.4688 0.2188 0.0000  plane waves:    2128
 k-point 48 :  -0.4688 0.2188 0.0000  plane waves:    2124
 k-point 49 :  -0.4062 0.2188 0.0000  plane waves:    2142
 k-point 50 :  -0.3438 0.2188 0.0000  plane waves:    2157
 k-point 51 :  -0.2813 0.2188 0.0000  plane waves:    2155
 k-point 52 :  -0.2188 0.2188 0.0000  plane waves:    2170
 k-point 53 :   0.2813 0.2813 0.0000  plane waves:    2108
 k-point 54 :   0.3438 0.2813 0.0000  plane waves:    2124
 k-point 55 :   0.4062 0.2812 0.0000  plane waves:    2122
 k-point 56 :   0.4688 0.2812 0.0000  plane waves:    2122
 k-point 57 :  -0.4688 0.2813 0.0000  plane waves:    2129
 k-point 58 :  -0.4063 0.2813 0.0000  plane waves:    2132
 k-point 59 :  -0.3438 0.2812 0.0000  plane waves:    2149
 k-point 60 :  -0.2813 0.2813 0.0000  plane waves:    2160
 k-point 61 :   0.3438 0.3438 0.0000  plane waves:    2120
 k-point 62 :   0.4062 0.3438 0.0000  plane waves:    2124
 k-point 63 :   0.4688 0.3438 0.0000  plane waves:    2113
 k-point 64 :  -0.4688 0.3438 0.0000  plane waves:    2117
 k-point 65 :  -0.4063 0.3438 0.0000  plane waves:    2127
 k-point 66 :  -0.3438 0.3438 0.0000  plane waves:    2152
 k-point 67 :   0.4062 0.4062 0.0000  plane waves:    2128
 k-point 68 :   0.4688 0.4062 0.0000  plane waves:    2116
 k-point 69 :  -0.4688 0.4062 0.0000  plane waves:    2124
 k-point 70 :  -0.4063 0.4063 0.0000  plane waves:    2122
 k-point 71 :   0.4688 0.4688 0.0000  plane waves:    2118
 k-point 72 :  -0.4688 0.4688 0.0000  plane waves:    2130

 maximum and minimum number of plane-waves per node :       319      293

 maximum number of plane-waves:      2176
 maximum index in each direction: 
   IXMAX=    5   IYMAX=    4   IZMAX=   28
   IXMIN=   -5   IYMIN=   -5   IZMIN=  -28


 parallel 3D FFT for wavefunctions:
    minimum data exchange during FFTs selected (reduces bandwidth)
 parallel 3D FFT for charge:
    minimum data exchange during FFTs selected (reduces bandwidth)


 total amount of memory used by VASP MPI-rank0    45233. kBytes
=======================================================================

   base      :      30000. kBytes
   nonl-proj :       1466. kBytes
   fftplans  :        727. kBytes
   grid      :       1094. kBytes
   one-center:          3. kBytes
   wavefun   :      11943. kBytes
 
     INWAV:  cpu time    0.0010: real time    0.0001
 Broyden mixing: mesh for mixing (old mesh)
   NGX =  9   NGY =  9   NGZ = 57
  (NGX  = 36   NGY  = 36   NGZ  =240)
  gives a total of   4617 points

 initial charge density was supplied:
 charge density of overlapping atoms calculated
 number of electron       8.0000000 magnetization 
 keeping initial charge density in first step


--------------------------------------------------------------------------------------------------------


 Maximum index for augmentation-charges          311 (set IRDMAX)


--------------------------------------------------------------------------------------------------------


 First call to EWALD:  gamma=   0.412
 Maximum number of real-space cells 5x 5x 1
 Maximum number of reciprocal cells 2x 2x 9

    FEWALD:  cpu time    0.0010: real time    0.0015


--------------------------------------- Iteration      1(   1)  ---------------------------------------


    POTLOK:  cpu time    0.0110: real time    0.0130
    SETDIJ:  cpu time    0.0020: real time    0.0014
     EDDAV:  cpu time    3.4835: real time    3.4877
       DOS:  cpu time    0.0010: real time    0.0020
    --------------------------------------------
      LOOP:  cpu time    3.4975: real time    3.5041

 eigenvalue-minimisations  : 18440
 total energy-change (2. order) : 0.4157057E+02  (-0.1875149E+03)
 number of electron       8.0000000 magnetization 
 augmentation part        8.0000000 magnetization 

 Free energy of the ion-electron system (eV)
  ---------------------------------------------------
  alpha Z        PSCENC =         4.10217130
  Ewald energy   TEWEN  =       917.93748368
  -Hartree energ DENC   =     -1133.62567946
  -exchange      EXHF   =         0.00000000
  -V(xc)+E(xc)   XCENC  =        27.75148937
  PAW double counting   =        75.66288619      -77.96384553
  entropy T*S    EENTRO =        -0.00000000
  eigenvalues    EBANDS =       -66.59172230
  atomic energy  EATOM  =       294.29778662
  Solvation  Ediel_sol  =         0.00000000
  ---------------------------------------------------
  free energy    TOTEN  =        41.57056987 eV

  energy without entropy =       41.57056987  energy(sigma->0) =       41.57056987


--------------------------------------------------------------------------------------------------------




--------------------------------------- Iteration      1(   2)  ---------------------------------------


     EDDAV:  cpu time    3.9554: real time    3.9585
       DOS:  cpu time    0.0010: real time    0.0018
    --------------------------------------------
      LOOP:  cpu time    3.9564: real time    3.9603

 eigenvalue-minimisations  : 22208
 total energy-change (2. order) :-0.5978005E+02  (-0.5651862E+02)
 number of electron       8.0000000 magnetization 
 augmentation part        8.0000000 magnetization 

 Free energy of the ion-electron system (eV)
  ---------------------------------------------------
  alpha Z        PSCENC =         4.10217130
  Ewald energy   TEWEN  =       917.93748368
  -Hartree energ DENC   =     -1133.62567946
  -exchange      EXHF   =         0.00000000
  -V(xc)+E(xc)   XCENC  =        27.75148937
  PAW double counting   =        75.66288619      -77.96384553
  entropy T*S    EENTRO =        -0.00000000
  eigenvalues    EBANDS =      -126.37177314
  atomic energy  EATOM  =       294.29778662
  Solvation  Ediel_sol  =         0.00000000
  ---------------------------------------------------
  free energy    TOTEN  =       -18.20948096 eV

  energy without entropy =      -18.20948096  energy(sigma->0) =      -18.20948096


--------------------------------------------------------------------------------------------------------




--------------------------------------- Iteration      1(   3)  ---------------------------------------


     EDDAV:  cpu time    3.8924: real time    3.8950
       DOS:  cpu time    0.0020: real time    0.0021
    --------------------------------------------
      LOOP:  cpu time    3.8944: real time    3.8971

 eigenvalue-minimisations  : 21648
 total energy-change (2. order) :-0.1638310E+01  (-0.1624884E+01)
 number of electron       8.0000000 magnetization 
 augmentation part        8.0000000 magnetization 

 Free energy of the ion-electron system (eV)
  ---------------------------------------------------
  alpha Z        PSCENC =         4.10217130
  Ewald energy   TEWEN  =       917.93748368
  -Hartree energ DENC   =     -1133.62567946
  -exchange      EXHF   =         0.00000000
  -V(xc)+E(xc)   XCENC  =        27.75148937
  PAW double counting   =        75.66288619      -77.96384553
  entropy T*S    EENTRO =        -0.00000000
  eigenvalues    EBANDS =      -128.01008361
  atomic energy  EATOM  =       294.29778662
  Solvation  Ediel_sol  =         0.00000000
  ---------------------------------------------------
  free energy    TOTEN  =       -19.84779144 eV

  energy without entropy =      -19.84779144  energy(sigma->0) =      -19.84779144


--------------------------------------------------------------------------------------------------------




--------------------------------------- Iteration      1(   4)  ---------------------------------------


     EDDAV:  cpu time    3.8454: real time    3.8516
       DOS:  cpu time    0.0020: real time    0.0020
    --------------------------------------------
      LOOP:  cpu time    3.8474: real time    3.8536

 eigenvalue-minimisations  : 21312
 total energy-change (2. order) :-0.2590587E-02  (-0.2590314E-02)
 number of electron       8.0000000 magnetization 
 augmentation part        8.0000000 magnetization 

 Free energy of the ion-electron system (eV)
  ---------------------------------------------------
  alpha Z        PSCENC =         4.10217130
  Ewald energy   TEWEN  =       917.93748368
  -Hartree energ DENC   =     -1133.62567946
  -exchange      EXHF   =         0.00000000
  -V(xc)+E(xc)   XCENC  =        27.75148937
  PAW double counting   =        75.66288619      -77.96384553
  entropy T*S    EENTRO =        -0.00000000
  eigenvalues    EBANDS =      -128.01267420
  atomic energy  EATOM  =       294.29778662
  Solvation  Ediel_sol  =         0.00000000
  ---------------------------------------------------
  free energy    TOTEN  =       -19.85038203 eV

  energy without entropy =      -19.85038203  energy(sigma->0) =      -19.85038203


--------------------------------------------------------------------------------------------------------




--------------------------------------- Iteration      1(   5)  ---------------------------------------


     EDDAV:  cpu time    3.8104: real time    3.8131
       DOS:  cpu time    0.0020: real time    0.0019
    CHARGE:  cpu time    0.0120: real time    0.0125
    MIXING:  cpu time    0.0010: real time    0.0008
    --------------------------------------------
      LOOP:  cpu time    3.8254: real time    3.8283

 eigenvalue-minimisations  : 21128
 total energy-change (2. order) :-0.5236982E-05  (-0.5236891E-05)
 number of electron       8.0000000 magnetization 
 augmentation part        0.2222229 magnetization 

 Broyden mixing:
  rms(total) = 0.58476E+00    rms(broyden)= 0.58467E+00
  rms(prec ) = 0.67020E+00
  weight for this iteration     100.00

 Free energy of the ion-electron system (eV)
  ---------------------------------------------------
  alpha Z        PSCENC =         4.10217130
  Ewald energy   TEWEN  =       917.93748368
  -Hartree energ DENC   =     -1133.62567946
  -exchange      EXHF   =         0.00000000
  -V(xc)+E(xc)   XCENC  =        27.75148937
  PAW double counting   =        75.66288619      -77.96384553
  entropy T*S    EENTRO =        -0.00000000
  eigenvalues    EBANDS =      -128.01267944
  atomic energy  EATOM  =       294.29778662
  Solvation  Ediel_sol  =         0.00000000
  ---------------------------------------------------
  free energy    TOTEN  =       -19.85038727 eV

  energy without entropy =      -19.85038727  energy(sigma->0) =      -19.85038727


--------------------------------------------------------------------------------------------------------




--------------------------------------- Iteration      1(   6)  ---------------------------------------


    POTLOK:  cpu time    0.0080: real time    0.0082
    SETDIJ:  cpu time    0.0020: real time    0.0013
     EDDAV:  cpu time    3.9674: real time    3.9714
       DOS:  cpu time    0.0020: real time    0.0021
    CHARGE:  cpu time    0.0130: real time    0.0124
    MIXING:  cpu time    0.0010: real time    0.0005
    --------------------------------------------
      LOOP:  cpu time    3.9934: real time    3.9960

 eigenvalue-minimisations  : 22264
 total energy-change (2. order) : 0.1054250E+01  (-0.2453197E-01)
 number of electron       8.0000000 magnetization 
 augmentation part        0.2118922 magnetization 

 Broyden mixing:
  rms(total) = 0.30625E+00    rms(broyden)= 0.30624E+00
  rms(prec ) = 0.35353E+00
  weight for this iteration     100.00

 eigenvalues of (default mixing * dielectric matrix)
  average eigenvalue GAMMA=   2.0375
  2.0375

 Free energy of the ion-electron system (eV)
  ---------------------------------------------------
  alpha Z        PSCENC =         4.10217130
  Ewald energy   TEWEN  =       917.93748368
  -Hartree energ DENC   =     -1145.54645408
  -exchange      EXHF   =         0.00000000
  -V(xc)+E(xc)   XCENC  =        28.28074462
  PAW double counting   =       105.16376615     -107.66892703
  entropy T*S    EENTRO =        -0.00000000
  eigenvalues    EBANDS =      -115.36270867
  atomic energy  EATOM  =       294.29778662
  Solvation  Ediel_sol  =         0.00000000
  ---------------------------------------------------
  free energy    TOTEN  =       -18.79613741 eV

  energy without entropy =      -18.79613741  energy(sigma->0) =      -18.79613741


--------------------------------------------------------------------------------------------------------




--------------------------------------- Iteration      1(   7)  ---------------------------------------


    POTLOK:  cpu time    0.0080: real time    0.0082
    SETDIJ:  cpu time    0.0010: real time    0.0013
     EDDAV:  cpu time    3.8024: real time    3.8055
       DOS:  cpu time    0.0020: real time    0.0022
    CHARGE:  cpu time    0.0120: real time    0.0123
    MIXING:  cpu time    0.0010: real time    0.0004
    --------------------------------------------
      LOOP:  cpu time    3.8264: real time    3.8299

 eigenvalue-minimisations  : 21032
 total energy-change (2. order) : 0.3979394E+00  (-0.3447232E-01)
 number of electron       8.0000000 magnetization 
 augmentation part        0.1999567 magnetization 

 Broyden mixing:
  rms(total) = 0.52267E-01    rms(broyden)= 0.52176E-01
  rms(prec ) = 0.64035E-01
  weight for this iteration     100.00

 eigenvalues of (default mixing * dielectric matrix)
  average eigenvalue GAMMA=   2.2775
  2.2775  2.2775

 Free energy of the ion-electron system (eV)
  ---------------------------------------------------
  alpha Z        PSCENC =         4.10217130
  Ewald energy   TEWEN  =       917.93748368
  -Hartree energ DENC   =     -1160.60145456
  -exchange      EXHF   =         0.00000000
  -V(xc)+E(xc)   XCENC  =        28.93575514
  PAW double counting   =       143.08145309     -145.76467646
  entropy T*S    EENTRO =        -0.00000000
  eigenvalues    EBANDS =      -100.38671685
  atomic energy  EATOM  =       294.29778662
  Solvation  Ediel_sol  =         0.00000000
  ---------------------------------------------------
  free energy    TOTEN  =       -18.39819803 eV

  energy without entropy =      -18.39819803  energy(sigma->0) =      -18.39819803


--------------------------------------------------------------------------------------------------------




--------------------------------------- Iteration      1(   8)  ---------------------------------------


    POTLOK:  cpu time    0.0080: real time    0.0085
    SETDIJ:  cpu time    0.0020: real time    0.0013
     EDDAV:  cpu time    3.9094: real time    3.9135
       DOS:  cpu time    0.0020: real time    0.0020
    CHARGE:  cpu time    0.0130: real time    0.0125
    MIXING:  cpu time    0.0000: real time    0.0004
    --------------------------------------------
      LOOP:  cpu time    3.9344: real time    3.9381

 eigenvalue-minimisations  : 21680
 total energy-change (2. order) : 0.1029829E-01  (-0.7850857E-03)
 number of electron       8.0000000 magnetization 
 augmentation part        0.1995787 magnetization 

 Broyden mixing:
  rms(total) = 0.10599E-01    rms(broyden)= 0.10577E-01
  rms(prec ) = 0.22661E-01
  weight for this iteration     100.00

 eigenvalues of (default mixing * dielectric matrix)
  average eigenvalue GAMMA=   1.9443
  1.0855  2.0063  2.7413

 Free energy of the ion-electron system (eV)
  ---------------------------------------------------
  alpha Z        PSCENC =         4.10217130
  Ewald energy   TEWEN  =       917.93748368
  -Hartree energ DENC   =     -1163.71081052
  -exchange      EXHF   =         0.00000000
  -V(xc)+E(xc)   XCENC  =        28.97136346
  PAW double counting   =       144.70495022     -147.31998992
  entropy T*S    EENTRO =        -0.00000000
  eigenvalues    EBANDS =       -97.37085458
  atomic energy  EATOM  =       294.29778662
  Solvation  Ediel_sol  =         0.00000000
  ---------------------------------------------------
  free energy    TOTEN  =       -18.38789974 eV

  energy without entropy =      -18.38789974  energy(sigma->0) =      -18.38789974


--------------------------------------------------------------------------------------------------------




--------------------------------------- Iteration      1(   9)  ---------------------------------------


    POTLOK:  cpu time    0.0090: real time    0.0106
    SETDIJ:  cpu time    0.0010: real time    0.0013
     EDDAV:  cpu time    3.8884: real time    3.8914
       DOS:  cpu time    0.0010: real time    0.0020
    CHARGE:  cpu time    0.0130: real time    0.0124
    MIXING:  cpu time    0.0010: real time    0.0004
    --------------------------------------------
      LOOP:  cpu time    3.9134: real time    3.9181

 eigenvalue-minimisations  : 21696
 total energy-change (2. order) : 0.2673169E-02  (-0.8772270E-04)
 number of electron       8.0000000 magnetization 
 augmentation part        0.1990992 magnetization 

 Broyden mixing:
  rms(total) = 0.66657E-02    rms(broyden)= 0.66611E-02
  rms(prec ) = 0.15770E-01
  weight for this iteration     100.00

 eigenvalues of (default mixing * dielectric matrix)
  average eigenvalue GAMMA=   2.2380
  1.0667  1.9249  2.9802  2.9802

 Free energy of the ion-electron system (eV)
  ---------------------------------------------------
  alpha Z        PSCENC =         4.10217130
  Ewald energy   TEWEN  =       917.93748368
  -Hartree energ DENC   =     -1165.39046529
  -exchange      EXHF   =         0.00000000
  -V(xc)+E(xc)   XCENC  =        29.00977652
  PAW double counting   =       145.96616836     -148.58172614
  entropy T*S    EENTRO =        -0.00000000
  eigenvalues    EBANDS =       -95.72642163
  atomic energy  EATOM  =       294.29778662
  Solvation  Ediel_sol  =         0.00000000
  ---------------------------------------------------
  free energy    TOTEN  =       -18.38522657 eV

  energy without entropy =      -18.38522657  energy(sigma->0) =      -18.38522657


--------------------------------------------------------------------------------------------------------




--------------------------------------- Iteration      1(  10)  ---------------------------------------


    POTLOK:  cpu time    0.0090: real time    0.0091
    SETDIJ:  cpu time    0.0010: real time    0.0013
     EDDAV:  cpu time    3.8364: real time    3.8394
       DOS:  cpu time    0.0020: real time    0.0020
    CHARGE:  cpu time    0.0130: real time    0.0125
    MIXING:  cpu time    0.0000: real time    0.0004
    --------------------------------------------
      LOOP:  cpu time    3.8614: real time    3.8647

 eigenvalue-minimisations  : 21376
 total energy-change (2. order) : 0.6350608E-03  (-0.4354676E-04)
 number of electron       8.0000000 magnetization 
 augmentation part        0.1988915 magnetization 

 Broyden mixing:
  rms(total) = 0.31468E-02    rms(broyden)= 0.31444E-02
  rms(prec ) = 0.65023E-02
  weight for this iteration     100.00

 eigenvalues of (default mixing * dielectric matrix)
  average eigenvalue GAMMA=   2.2359
  4.2538  1.0021  2.5373  1.4461  1.9401

 Free energy of the ion-electron system (eV)
  ---------------------------------------------------
  alpha Z        PSCENC =         4.10217130
  Ewald energy   TEWEN  =       917.93748368
  -Hartree energ DENC   =     -1167.94510862
  -exchange      EXHF   =         0.00000000
  -V(xc)+E(xc)   XCENC  =        29.03064294
  PAW double counting   =       144.51289928     -147.12980573
  entropy T*S    EENTRO =        -0.00000000
  eigenvalues    EBANDS =       -93.19066098
  atomic energy  EATOM  =       294.29778662
  Solvation  Ediel_sol  =         0.00000000
  ---------------------------------------------------
  free energy    TOTEN  =       -18.38459151 eV

  energy without entropy =      -18.38459151  energy(sigma->0) =      -18.38459151


--------------------------------------------------------------------------------------------------------




--------------------------------------- Iteration      1(  11)  ---------------------------------------


    POTLOK:  cpu time    0.0090: real time    0.0086
    SETDIJ:  cpu time    0.0010: real time    0.0013
     EDDAV:  cpu time    3.8424: real time    3.8455
       DOS:  cpu time    0.0010: real time    0.0021
    CHARGE:  cpu time    0.0130: real time    0.0123
    MIXING:  cpu time    0.0010: real time    0.0004
    --------------------------------------------
      LOOP:  cpu time    3.8674: real time    3.8702

 eigenvalue-minimisations  : 21416
 total energy-change (2. order) : 0.5172932E-03  (-0.4007207E-05)
 number of electron       8.0000000 magnetization 
 augmentation part        0.1988136 magnetization 

 Broyden mixing:
  rms(total) = 0.19338E-02    rms(broyden)= 0.19333E-02
  rms(prec ) = 0.42313E-02
  weight for this iteration     100.00

 eigenvalues of (default mixing * dielectric matrix)
  average eigenvalue GAMMA=   2.5301
  5.7111  2.9551  2.5342  1.9617  1.0525  0.9659

 Free energy of the ion-electron system (eV)
  ---------------------------------------------------
  alpha Z        PSCENC =         4.10217130
  Ewald energy   TEWEN  =       917.93748368
  -Hartree energ DENC   =     -1168.82007330
  -exchange      EXHF   =         0.00000000
  -V(xc)+E(xc)   XCENC  =        29.03923515
  PAW double counting   =       144.86968426     -147.48430180
  entropy T*S    EENTRO =        -0.00000000
  eigenvalues    EBANDS =       -92.32606013
  atomic energy  EATOM  =       294.29778662
  Solvation  Ediel_sol  =         0.00000000
  ---------------------------------------------------
  free energy    TOTEN  =       -18.38407422 eV

  energy without entropy =      -18.38407422  energy(sigma->0) =      -18.38407422


--------------------------------------------------------------------------------------------------------




--------------------------------------- Iteration      1(  12)  ---------------------------------------


    POTLOK:  cpu time    0.0100: real time    0.0126
    SETDIJ:  cpu time    0.0020: real time    0.0013
     EDDAV:  cpu time    3.6894: real time    3.6923
       DOS:  cpu time    0.0010: real time    0.0021
    CHARGE:  cpu time    0.0130: real time    0.0123
    MIXING:  cpu time    0.0000: real time    0.0004
    --------------------------------------------
      LOOP:  cpu time    3.7154: real time    3.7211

 eigenvalue-minimisations  : 20248
 total energy-change (2. order) :-0.9449329E-03  (-0.6725593E-05)
 number of electron       8.0000000 magnetization 
 augmentation part        0.1987787 magnetization 

 Broyden mixing:
  rms(total) = 0.11064E-02    rms(broyden)= 0.11063E-02
  rms(prec ) = 0.21556E-02
  weight for this iteration     100.00

 eigenvalues of (default mixing * dielectric matrix)
  average eigenvalue GAMMA=   2.5328
  6.0383  3.3837  2.6751  0.9911  0.9911  1.9805  1.6700

 Free energy of the ion-electron system (eV)
  ---------------------------------------------------
  alpha Z        PSCENC =         4.10217130
  Ewald energy   TEWEN  =       917.93748368
  -Hartree energ DENC   =     -1169.29819547
  -exchange      EXHF   =         0.00000000
  -V(xc)+E(xc)   XCENC  =        29.03720830
  PAW double counting   =       145.02083037     -147.63768196
  entropy T*S    EENTRO =        -0.00000000
  eigenvalues    EBANDS =       -91.84462199
  atomic energy  EATOM  =       294.29778662
  Solvation  Ediel_sol  =         0.00000000
  ---------------------------------------------------
  free energy    TOTEN  =       -18.38501915 eV

  energy without entropy =      -18.38501915  energy(sigma->0) =      -18.38501915


--------------------------------------------------------------------------------------------------------




--------------------------------------- Iteration      1(  13)  ---------------------------------------


    POTLOK:  cpu time    0.0080: real time    0.0090
    SETDIJ:  cpu time    0.0020: real time    0.0013
     EDDAV:  cpu time    3.7424: real time    3.7457
       DOS:  cpu time    0.0020: real time    0.0020
    CHARGE:  cpu time    0.0130: real time    0.0125
    MIXING:  cpu time    0.0000: real time    0.0005
    --------------------------------------------
      LOOP:  cpu time    3.7674: real time    3.7709

 eigenvalue-minimisations  : 20616
 total energy-change (2. order) :-0.6078223E-03  (-0.3872084E-05)
 number of electron       8.0000000 magnetization 
 augmentation part        0.1988190 magnetization 

 Broyden mixing:
  rms(total) = 0.61499E-03    rms(broyden)= 0.61495E-03
  rms(prec ) = 0.11087E-02
  weight for this iteration     100.00

 eigenvalues of (default mixing * dielectric matrix)
  average eigenvalue GAMMA=   2.6174
  6.5633  4.3115  2.7280  2.3584  1.9694  1.0469  1.0198  0.9423

 Free energy of the ion-electron system (eV)
  ---------------------------------------------------
  alpha Z        PSCENC =         4.10217130
  Ewald energy   TEWEN  =       917.93748368
  -Hartree energ DENC   =     -1169.28312088
  -exchange      EXHF   =         0.00000000
  -V(xc)+E(xc)   XCENC  =        29.03348457
  PAW double counting   =       145.04198718     -147.65750145
  entropy T*S    EENTRO =        -0.00000000
  eigenvalues    EBANDS =       -91.85791800
  atomic energy  EATOM  =       294.29778662
  Solvation  Ediel_sol  =         0.00000000
  ---------------------------------------------------
  free energy    TOTEN  =       -18.38562697 eV

  energy without entropy =      -18.38562697  energy(sigma->0) =      -18.38562697


--------------------------------------------------------------------------------------------------------




--------------------------------------- Iteration      1(  14)  ---------------------------------------


    POTLOK:  cpu time    0.0080: real time    0.0078
    SETDIJ:  cpu time    0.0010: real time    0.0013
     EDDAV:  cpu time    3.8304: real time    3.8333
       DOS:  cpu time    0.0020: real time    0.0021
    CHARGE:  cpu time    0.0120: real time    0.0125
    MIXING:  cpu time    0.0010: real time    0.0005
    --------------------------------------------
      LOOP:  cpu time    3.8544: real time    3.8574

 eigenvalue-minimisations  : 21256
 total energy-change (2. order) :-0.6369400E-04  (-0.2973688E-06)
 number of electron       8.0000000 magnetization 
 augmentation part        0.1988083 magnetization 

 Broyden mixing:
  rms(total) = 0.39265E-03    rms(broyden)= 0.39265E-03
  rms(prec ) = 0.63386E-03
  weight for this iteration     100.00

 eigenvalues of (default mixing * dielectric matrix)
  average eigenvalue GAMMA=   2.8812
  7.8116  5.0563  3.2485  2.6460  1.9791  2.2024  1.0078  1.0078  0.9713

 Free energy of the ion-electron system (eV)
  ---------------------------------------------------
  alpha Z        PSCENC =         4.10217130
  Ewald energy   TEWEN  =       917.93748368
  -Hartree energ DENC   =     -1169.43444429
  -exchange      EXHF   =         0.00000000
  -V(xc)+E(xc)   XCENC  =        29.03492305
  PAW double counting   =       144.95565824     -147.57122074
  entropy T*S    EENTRO =        -0.00000000
  eigenvalues    EBANDS =       -91.70804852
  atomic energy  EATOM  =       294.29778662
  Solvation  Ediel_sol  =         0.00000000
  ---------------------------------------------------
  free energy    TOTEN  =       -18.38569067 eV

  energy without entropy =      -18.38569067  energy(sigma->0) =      -18.38569067


--------------------------------------------------------------------------------------------------------




--------------------------------------- Iteration      1(  15)  ---------------------------------------


    POTLOK:  cpu time    0.0080: real time    0.0079
    SETDIJ:  cpu time    0.0010: real time    0.0013
     EDDAV:  cpu time    3.8214: real time    3.8245
       DOS:  cpu time    0.0020: real time    0.0021
    CHARGE:  cpu time    0.0130: real time    0.0123
    MIXING:  cpu time    0.0000: real time    0.0005
    --------------------------------------------
      LOOP:  cpu time    3.8454: real time    3.8486

 eigenvalue-minimisations  : 21256
 total energy-change (2. order) :-0.9873041E-04  (-0.3283669E-06)
 number of electron       8.0000000 magnetization 
 augmentation part        0.1987934 magnetization 

 Broyden mixing:
  rms(total) = 0.12360E-03    rms(broyden)= 0.12353E-03
  rms(prec ) = 0.17214E-03
  weight for this iteration     100.00

 eigenvalues of (default mixing * dielectric matrix)
  average eigenvalue GAMMA=   3.0223
  8.5636  6.1253  3.1389  2.7638  2.6610  2.0715  1.8959  1.0103  1.0103  0.9822

 Free energy of the ion-electron system (eV)
  ---------------------------------------------------
  alpha Z        PSCENC =         4.10217130
  Ewald energy   TEWEN  =       917.93748368
  -Hartree energ DENC   =     -1169.52558966
  -exchange      EXHF   =         0.00000000
  -V(xc)+E(xc)   XCENC  =        29.03590268
  PAW double counting   =       144.93515153     -147.55108296
  entropy T*S    EENTRO =        -0.00000000
  eigenvalues    EBANDS =       -91.61761259
  atomic energy  EATOM  =       294.29778662
  Solvation  Ediel_sol  =         0.00000000
  ---------------------------------------------------
  free energy    TOTEN  =       -18.38578940 eV

  energy without entropy =      -18.38578940  energy(sigma->0) =      -18.38578940


--------------------------------------------------------------------------------------------------------




--------------------------------------- Iteration      1(  16)  ---------------------------------------


    POTLOK:  cpu time    0.0080: real time    0.0080
    SETDIJ:  cpu time    0.0020: real time    0.0013
     EDDAV:  cpu time    3.8514: real time    3.8551
       DOS:  cpu time    0.0020: real time    0.0020
    CHARGE:  cpu time    0.0120: real time    0.0124
    MIXING:  cpu time    0.0010: real time    0.0005
    --------------------------------------------
      LOOP:  cpu time    3.8764: real time    3.8793

 eigenvalue-minimisations  : 21464
 total energy-change (2. order) :-0.1113888E-04  (-0.1021927E-07)
 number of electron       8.0000000 magnetization 
 augmentation part        0.1987983 magnetization 

 Broyden mixing:
  rms(total) = 0.50030E-04    rms(broyden)= 0.50027E-04
  rms(prec ) = 0.76863E-04
  weight for this iteration     100.00

 eigenvalues of (default mixing * dielectric matrix)
  average eigenvalue GAMMA=   2.9631
  9.3953  6.0445  3.8698  2.7759  2.5076  2.0133  2.0133  1.0271  1.0271  0.9704
  0.9494

 Free energy of the ion-electron system (eV)
  ---------------------------------------------------
  alpha Z        PSCENC =         4.10217130
  Ewald energy   TEWEN  =       917.93748368
  -Hartree energ DENC   =     -1169.50032162
  -exchange      EXHF   =         0.00000000
  -V(xc)+E(xc)   XCENC  =        29.03536334
  PAW double counting   =       144.95146414     -147.56733790
  entropy T*S    EENTRO =        -0.00000000
  eigenvalues    EBANDS =       -91.64241010
  atomic energy  EATOM  =       294.29778662
  Solvation  Ediel_sol  =         0.00000000
  ---------------------------------------------------
  free energy    TOTEN  =       -18.38580054 eV

  energy without entropy =      -18.38580054  energy(sigma->0) =      -18.38580054


--------------------------------------------------------------------------------------------------------




--------------------------------------- Iteration      1(  17)  ---------------------------------------


    POTLOK:  cpu time    0.0080: real time    0.0089
    SETDIJ:  cpu time    0.0020: real time    0.0013
     EDDAV:  cpu time    3.8244: real time    3.8295
       DOS:  cpu time    0.0020: real time    0.0020
    CHARGE:  cpu time    0.0130: real time    0.0124
    MIXING:  cpu time    0.0000: real time    0.0006
    --------------------------------------------
      LOOP:  cpu time    3.8494: real time    3.8546

 eigenvalue-minimisations  : 21280
 total energy-change (2. order) :-0.3300319E-05  (-0.1369377E-08)
 number of electron       8.0000000 magnetization 
 augmentation part        0.1987956 magnetization 

 Broyden mixing:
  rms(total) = 0.19949E-04    rms(broyden)= 0.19941E-04
  rms(prec ) = 0.23959E-04
  weight for this iteration     100.00

 eigenvalues of (default mixing * dielectric matrix)
  average eigenvalue GAMMA=   3.0091
  9.6522  6.0944  4.0737  3.1343  2.6772  2.4654  1.9853  2.0158  0.9799  0.9957
  1.0179  1.0179

 Free energy of the ion-electron system (eV)
  ---------------------------------------------------
  alpha Z        PSCENC =         4.10217130
  Ewald energy   TEWEN  =       917.93748368
  -Hartree energ DENC   =     -1169.51524160
  -exchange      EXHF   =         0.00000000
  -V(xc)+E(xc)   XCENC  =        29.03559140
  PAW double counting   =       144.95355727     -147.56946571
  entropy T*S    EENTRO =        -0.00000000
  eigenvalues    EBANDS =       -91.62768679
  atomic energy  EATOM  =       294.29778662
  Solvation  Ediel_sol  =         0.00000000
  ---------------------------------------------------
  free energy    TOTEN  =       -18.38580384 eV

  energy without entropy =      -18.38580384  energy(sigma->0) =      -18.38580384


--------------------------------------------------------------------------------------------------------




--------------------------------------- Iteration      1(  18)  ---------------------------------------


    POTLOK:  cpu time    0.0080: real time    0.0083
    SETDIJ:  cpu time    0.0020: real time    0.0013
     EDDAV:  cpu time    3.7314: real time    3.7346
       DOS:  cpu time    0.0020: real time    0.0020
    --------------------------------------------
      LOOP:  cpu time    3.7434: real time    3.7462

 eigenvalue-minimisations  : 20560
 total energy-change (2. order) :-0.8404631E-06  (-0.1153023E-08)
 number of electron       8.0000000 magnetization 
 augmentation part        0.1987956 magnetization 

 Free energy of the ion-electron system (eV)
  ---------------------------------------------------
  alpha Z        PSCENC =         4.10217130
  Ewald energy   TEWEN  =       917.93748368
  -Hartree energ DENC   =     -1169.51426746
  -exchange      EXHF   =         0.00000000
  -V(xc)+E(xc)   XCENC  =        29.03556014
  PAW double counting   =       144.95389171     -147.56977987
  entropy T*S    EENTRO =        -0.00000000
  eigenvalues    EBANDS =       -91.62865081
  atomic energy  EATOM  =       294.29778662
  Solvation  Ediel_sol  =         0.00000000
  ---------------------------------------------------
  free energy    TOTEN  =       -18.38580468 eV

  energy without entropy =      -18.38580468  energy(sigma->0) =      -18.38580468


--------------------------------------------------------------------------------------------------------




 average (electrostatic) potential at core
  the test charge radii are     0.6991
  (the norm of the test charge is              1.0000)
       1 -57.5166       2 -57.5166
 
 
 
 E-fermi :  -2.1421     XC(G=0):  -2.7821     alpha+bet : -2.5271


 k-point     1 :       0.0312    0.0312    0.0000
  band No.  band energies     occupation 
      1     -21.9449      2.00000
      2      -9.9772      2.00000
      3      -5.3923      2.00000
      4      -5.3765      2.00000
      5       1.0702      0.00000
      6       1.9611      0.00000
      7       2.4796      0.00000
      8       4.2036      0.00000
      9       4.9216      0.00000
     10       6.2813      0.00000
     11       6.8169      0.00000
     12       7.8367      0.00000
     13       8.8665      0.00000
     14       9.5294      0.00000
     15      11.5956      0.00000
     16      12.8040      0.00000
     17      14.1889      0.00000
     18      18.9708      0.00000
     19      20.8429      0.00000
     20      21.2015      0.00000
     21      25.5961      0.00000
     22      25.7860      0.00000
     23      26.3068      0.00000
     24      28.7863      0.00000
     25      29.2787      0.00000
     26      30.6900      0.00000
     27      31.7502      0.00000
     28      31.9795      0.00000
     29      33.2155      0.00000
     30      33.2236      0.00000
     31      33.4182      0.00000
     32      33.5182      0.00000
     33      33.7269      0.00000
     34      33.7300      0.00000
     35      33.9215      0.00000
     36      35.0187      0.00000
     37      35.0650      0.00000
     38      35.2753      0.00000
     39      35.3096      0.00000
     40      35.6207      0.00000
     41      35.7735      0.00000
     42      35.8296      0.00000
     43      36.0351      0.00000
     44      36.8231      0.00000
     45      37.3360      0.00000
     46      37.4407      0.00000
     47      37.5009      0.00000
     48      37.8851      0.00000
     49      37.9143      0.00000
     50      38.1315      0.00000
     51      38.6344      0.00000
     52      38.9703      0.00000
     53      39.6315      0.00000
     54      39.8399      0.00000
     55      39.8402      0.00000
     56      40.0429      0.00000
     57      40.1142      0.00000
     58      40.2028      0.00000
     59      40.2126      0.00000
     60      41.1248      0.00000
     61      41.2715      0.00000
     62      41.4534      0.00000
     63      41.4677      0.00000
     64      42.2347      0.00000
     65      42.2853      0.00000
     66      42.5231      0.00000
     67      42.5319      0.00000
     68      43.9899      0.00000
     69      44.6720      0.00000
     70      44.7997      0.00000
     71      44.8040      0.00000
     72      45.4886      0.00000
     73      45.6463      0.00000
     74      45.8782      0.00000
     75      46.0158      0.00000
     76      46.4824      0.00000
     77      46.6167      0.00000
     78      46.8558      0.00000
     79      47.1218      0.00000
     80      47.9737      0.00000
     81      48.3835      0.00000
     82      49.4254      0.00000
     83      49.5477      0.00000
     84      49.9466      0.00000
     85      51.0127      0.00000
     86      51.3783      0.00000
     87      51.7785      0.00000
     88      51.8586      0.00000
     89      52.0560      0.00000
     90      52.4360      0.00000
     91      53.2340      0.00000
     92      53.2892      0.00000
     93      53.7175      0.00000
     94      53.8588      0.00000
     95      54.6788      0.00000
     96      56.9180      0.00000
     97      57.1338      0.00000
     98      57.8971      0.00000
     99      58.7033      0.00000
    100      59.0147      0.00000
    101      59.0616      0.00000
    102      59.8364      0.00000
    103      59.8472      0.00000
    104      60.2093      0.00000
    105      60.3649      0.00000
    106      61.1308      0.00000
    107      61.6860      0.00000
    108      61.7168      0.00000
    109      62.1355      0.00000
    110      64.9835      0.00000
    111      65.7904      0.00000
    112      66.1110      0.00000
    113      66.9490      0.00000
    114      67.5422      0.00000
    115      68.3282      0.00000
    116      68.7683      0.00000
    117      68.9762      0.00000
    118      69.7919      0.00000
    119      70.2366      0.00000
    120      70.2957      0.00000
    121      70.8667      0.00000
    122      71.8524      0.00000
    123      72.0839      0.00000
    124      72.3233      0.00000
    125      72.9007      0.00000
    126      74.2604      0.00000
    127      74.9428      0.00000
    128      75.7690      0.00000

 k-point     2 :       0.0938    0.0312    0.0000
  band No.  band energies     occupation 
      1     -21.7026      2.00000
      2      -9.6851      2.00000
      3      -6.2574      2.00000
      4      -5.8447      2.00000
      5       1.4010      0.00000
      6       2.2948      0.00000
      7       2.8167      0.00000
      8       4.5358      0.00000
      9       5.2496      0.00000
     10       6.5936      0.00000
     11       7.3537      0.00000
     12       8.1606      0.00000
     13       8.7365      0.00000
     14       9.2013      0.00000
     15      12.1419      0.00000
     16      13.1085      0.00000
     17      14.5180      0.00000
     18      19.1861      0.00000
     19      21.1678      0.00000
     20      21.9825      0.00000
     21      23.6690      0.00000
     22      24.6764      0.00000
     23      26.3645      0.00000
     24      28.2129      0.00000
     25      29.0404      0.00000
     26      29.0977      0.00000
     27      29.6091      0.00000
     28      29.6558      0.00000
     29      30.0869      0.00000
     30      31.5552      0.00000
     31      31.6139      0.00000
     32      31.8324      0.00000
     33      31.9095      0.00000
     34      32.2629      0.00000
     35      32.5607      0.00000
     36      33.5739      0.00000
     37      33.8058      0.00000
     38      33.8197      0.00000
     39      34.1110      0.00000
     40      35.2533      0.00000
     41      35.4931      0.00000
     42      35.6283      0.00000
     43      35.9094      0.00000
     44      36.2609      0.00000
     45      36.3192      0.00000
     46      37.4184      0.00000
     47      37.6844      0.00000
     48      37.8724      0.00000
     49      37.9051      0.00000
     50      38.2184      0.00000
     51      38.5832      0.00000
     52      39.5029      0.00000
     53      39.6991      0.00000
     54      39.7840      0.00000
     55      40.0815      0.00000
     56      40.4769      0.00000
     57      40.8949      0.00000
     58      41.4541      0.00000
     59      42.3562      0.00000
     60      42.4763      0.00000
     61      42.6576      0.00000
     62      42.7607      0.00000
     63      43.1891      0.00000
     64      43.5600      0.00000
     65      43.7173      0.00000
     66      44.3357      0.00000
     67      44.5945      0.00000
     68      44.7772      0.00000
     69      44.8254      0.00000
     70      45.0280      0.00000
     71      45.1088      0.00000
     72      46.3575      0.00000
     73      46.4674      0.00000
     74      46.7750      0.00000
     75      47.2354      0.00000
     76      47.4977      0.00000
     77      47.8466      0.00000
     78      48.3595      0.00000
     79      48.5834      0.00000
     80      49.0497      0.00000
     81      49.2164      0.00000
     82      49.3374      0.00000
     83      49.6586      0.00000
     84      50.0697      0.00000
     85      50.8986      0.00000
     86      51.1817      0.00000
     87      51.4761      0.00000
     88      52.0159      0.00000
     89      52.2593      0.00000
     90      53.6153      0.00000
     91      54.6261      0.00000
     92      54.8307      0.00000
     93      55.5700      0.00000
     94      55.6289      0.00000
     95      56.0056      0.00000
     96      56.2887      0.00000
     97      57.0796      0.00000
     98      57.1343      0.00000
     99      58.1289      0.00000
    100      58.8779      0.00000
    101      59.2952      0.00000
    102      59.7198      0.00000
    103      60.5823      0.00000
    104      61.0172      0.00000
    105      61.1761      0.00000
    106      62.3728      0.00000
    107      62.9840      0.00000
    108      63.5508      0.00000
    109      64.1487      0.00000
    110      64.4613      0.00000
    111      65.2064      0.00000
    112      66.1712      0.00000
    113      66.9073      0.00000
    114      67.8560      0.00000
    115      68.0505      0.00000
    116      68.5290      0.00000
    117      68.5410      0.00000
    118      69.5875      0.00000
    119      70.3666      0.00000
    120      71.0278      0.00000
    121      71.1907      0.00000
    122      72.1700      0.00000
    123      73.2487      0.00000
    124      73.2784      0.00000
    125      74.0917      0.00000
    126      74.6162      0.00000
    127      75.6126      0.00000
    128      76.5480      0.00000

 k-point     3 :       0.1563    0.0312    0.0000
  band No.  band energies     occupation 
      1     -21.2697      2.00000
      2      -9.1661      2.00000
      3      -7.5842      2.00000
      4      -6.5233      2.00000
      5       1.9934      0.00000
      6       2.8918      0.00000
      7       3.4209      0.00000
      8       5.1293      0.00000
      9       5.8257      0.00000
     10       6.4544      0.00000
     11       7.4480      0.00000
     12       8.7399      0.00000
     13       8.8147      0.00000
     14       9.7936      0.00000
     15      13.0672      0.00000
     16      13.6378      0.00000
     17      15.1020      0.00000
     18      19.3200      0.00000
     19      21.7038      0.00000
     20      21.8089      0.00000
     21      22.8691      0.00000
     22      23.2145      0.00000
     23      24.9742      0.00000
     24      25.7900      0.00000
     25      26.0628      0.00000
     26      27.0239      0.00000
     27      28.3500      0.00000
     28      28.5698      0.00000
     29      28.6426      0.00000
     30      29.0206      0.00000
     31      29.6616      0.00000
     32      30.0008      0.00000
     33      30.4541      0.00000
     34      30.7595      0.00000
     35      31.9809      0.00000
     36      32.1038      0.00000
     37      32.1994      0.00000
     38      32.2574      0.00000
     39      32.5429      0.00000
     40      32.6698      0.00000
     41      34.0228      0.00000
     42      34.5095      0.00000
     43      35.6594      0.00000
     44      35.8179      0.00000
     45      36.3135      0.00000
     46      36.8932      0.00000
     47      37.3184      0.00000
     48      37.6292      0.00000
     49      38.3262      0.00000
     50      38.5245      0.00000
     51      38.8276      0.00000
     52      38.9002      0.00000
     53      40.0767      0.00000
     54      40.3279      0.00000
     55      41.1013      0.00000
     56      41.4162      0.00000
     57      41.9714      0.00000
     58      42.1797      0.00000
     59      42.8012      0.00000
     60      42.9952      0.00000
     61      43.1300      0.00000
     62      43.4701      0.00000
     63      43.9161      0.00000
     64      44.2282      0.00000
     65      45.2630      0.00000
     66      45.3916      0.00000
     67      45.4317      0.00000
     68      46.0806      0.00000
     69      46.2420      0.00000
     70      47.0013      0.00000
     71      47.0497      0.00000
     72      47.6201      0.00000
     73      47.7437      0.00000
     74      48.6142      0.00000
     75      48.8721      0.00000
     76      48.9770      0.00000
     77      49.4610      0.00000
     78      49.6682      0.00000
     79      49.8495      0.00000
     80      50.1722      0.00000
     81      50.5294      0.00000
     82      51.2874      0.00000
     83      51.4508      0.00000
     84      51.8220      0.00000
     85      51.9494      0.00000
     86      52.2210      0.00000
     87      52.4303      0.00000
     88      52.6813      0.00000
     89      52.9580      0.00000
     90      54.8734      0.00000
     91      55.8784      0.00000
     92      55.9366      0.00000
     93      56.3503      0.00000
     94      56.5256      0.00000
     95      57.4016      0.00000
     96      57.5437      0.00000
     97      58.0542      0.00000
     98      58.3524      0.00000
     99      58.8392      0.00000
    100      59.5477      0.00000
    101      60.6952      0.00000
    102      60.9002      0.00000
    103      61.2555      0.00000
    104      61.5606      0.00000
    105      61.9072      0.00000
    106      63.3857      0.00000
    107      63.6923      0.00000
    108      64.4850      0.00000
    109      64.8556      0.00000
    110      65.7548      0.00000
    111      66.0731      0.00000
    112      66.5003      0.00000
    113      66.7476      0.00000
    114      67.7677      0.00000
    115      67.8227      0.00000
    116      68.1376      0.00000
[...]
     12      11.8967      0.00000
     13      12.5904      0.00000
     14      13.1696      0.00000
     15      13.8528      0.00000
     16      13.9752      0.00000
     17      15.0804      0.00000
     18      15.7251      0.00000
     19      16.8160      0.00000
     20      16.8308      0.00000
     21      18.2820      0.00000
     22      18.5506      0.00000
     23      19.1116      0.00000
     24      20.8468      0.00000
     25      20.8615      0.00000
     26      21.1788      0.00000
     27      24.1383      0.00000
     28      24.2280      0.00000
     29      25.9153      0.00000
     30      26.1043      0.00000
     31      26.6785      0.00000
     32      27.3140      0.00000
     33      28.1975      0.00000
     34      28.2905      0.00000
     35      28.7503      0.00000
     36      28.7883      0.00000
     37      29.0307      0.00000
     38      30.1735      0.00000
     39      30.8212      0.00000
     40      31.0183      0.00000
     41      31.0899      0.00000
     42      31.4793      0.00000
     43      32.7617      0.00000
     44      32.9099      0.00000
     45      34.2006      0.00000
     46      34.3959      0.00000
     47      34.4462      0.00000
     48      35.0005      0.00000
     49      35.5504      0.00000
     50      36.6186      0.00000
     51      37.7432      0.00000
     52      39.3555      0.00000
     53      40.2907      0.00000
     54      40.3569      0.00000
     55      40.4138      0.00000
     56      40.7370      0.00000
     57      41.7136      0.00000
     58      43.0460      0.00000
     59      43.4727      0.00000
     60      45.7354      0.00000
     61      46.6428      0.00000
     62      46.6950      0.00000
     63      46.6973      0.00000
     64      47.6285      0.00000
     65      48.1335      0.00000
     66      48.6425      0.00000
     67      49.6309      0.00000
     68      51.0900      0.00000
     69      53.1602      0.00000
     70      53.4411      0.00000
     71      53.9957      0.00000
     72      54.1210      0.00000
     73      54.5940      0.00000
     74      54.8311      0.00000
     75      55.0544      0.00000
     76      55.2426      0.00000
     77      55.5492      0.00000
     78      55.5631      0.00000
     79      55.7627      0.00000
     80      56.3849      0.00000
     81      57.1229      0.00000
     82      57.4174      0.00000
     83      57.6063      0.00000
     84      57.8599      0.00000
     85      58.7647      0.00000
     86      58.9025      0.00000
     87      59.7374      0.00000
     88      60.0592      0.00000
     89      60.2226      0.00000
     90      60.9615      0.00000
     91      61.6327      0.00000
     92      61.8078      0.00000
     93      62.2952      0.00000
     94      63.0968      0.00000
     95      63.1331      0.00000
     96      64.2172      0.00000
     97      64.2870      0.00000
     98      64.5759      0.00000
     99      64.6978      0.00000
    100      65.4051      0.00000
    101      66.1227      0.00000
    102      66.3954      0.00000
    103      66.6791      0.00000
    104      66.7654      0.00000
    105      67.1442      0.00000
    106      67.3750      0.00000
    107      67.4836      0.00000
    108      67.5705      0.00000
    109      67.6175      0.00000
    110      67.8361      0.00000
    111      67.8800      0.00000
    112      68.0816      0.00000
    113      68.6639      0.00000
    114      69.5018      0.00000
    115      69.6424      0.00000
    116      69.7997      0.00000
    117      70.1710      0.00000
    118      70.2053      0.00000
    119      70.2130      0.00000
    120      70.7673      0.00000
    121      71.6981      0.00000
    122      72.3039      0.00000
    123      72.8817      0.00000
    124      73.0534      0.00000
    125      73.2968      0.00000
    126      73.3931      0.00000
    127      73.6532      0.00000
    128      73.8244      0.00000

 k-point    71 :       0.4688    0.4688    0.0000
  band No.  band energies     occupation 
      1     -16.8086      2.00000
      2     -15.6021      2.00000
      3      -8.5967      2.00000
      4      -4.7340      2.00000
      5      -0.5352      0.00000
      6       6.8564      0.00000
      7       8.8840      0.00000
      8       9.0763      0.00000
      9       9.8374      0.00000
     10      10.0313      0.00000
     11      10.6507      0.00000
     12      10.6800      0.00000
     13      11.8899      0.00000
     14      12.2943      0.00000
     15      12.8353      0.00000
     16      12.9347      0.00000
     17      14.4760      0.00000
     18      15.8625      0.00000
     19      16.2770      0.00000
     20      16.6042      0.00000
     21      17.7452      0.00000
     22      18.0799      0.00000
     23      20.2911      0.00000
     24      20.8209      0.00000
     25      20.9371      0.00000
     26      21.1525      0.00000
     27      23.1944      0.00000
     28      23.5205      0.00000
     29      23.7160      0.00000
     30      25.1586      0.00000
     31      25.1961      0.00000
     32      25.4859      0.00000
     33      27.0716      0.00000
     34      27.2919      0.00000
     35      27.6466      0.00000
     36      28.9949      0.00000
     37      29.2442      0.00000
     38      30.0401      0.00000
     39      30.1046      0.00000
     40      31.1035      0.00000
     41      31.5774      0.00000
     42      31.7753      0.00000
     43      32.0472      0.00000
     44      33.7521      0.00000
     45      33.9018      0.00000
     46      34.4746      0.00000
     47      35.3042      0.00000
     48      35.5046      0.00000
     49      36.9976      0.00000
     50      37.2976      0.00000
     51      37.3005      0.00000
     52      37.6301      0.00000
     53      38.0447      0.00000
     54      38.5836      0.00000
     55      41.5254      0.00000
     56      42.4052      0.00000
     57      43.3005      0.00000
     58      43.4074      0.00000
     59      43.6846      0.00000
     60      45.8457      0.00000
     61      46.0746      0.00000
     62      46.7382      0.00000
     63      47.7652      0.00000
     64      48.0837      0.00000
     65      48.0978      0.00000
     66      49.7691      0.00000
     67      50.1459      0.00000
     68      50.7954      0.00000
     69      51.8447      0.00000
     70      53.4568      0.00000
     71      54.1504      0.00000
     72      54.8656      0.00000
     73      56.2098      0.00000
     74      56.2175      0.00000
     75      56.4295      0.00000
     76      56.5147      0.00000
     77      57.0960      0.00000
     78      57.3231      0.00000
     79      58.0700      0.00000
     80      58.1138      0.00000
     81      58.1803      0.00000
     82      58.3015      0.00000
     83      58.3265      0.00000
     84      58.7052      0.00000
     85      59.8768      0.00000
     86      59.9921      0.00000
     87      60.3188      0.00000
     88      60.4651      0.00000
     89      60.8891      0.00000
     90      61.3047      0.00000
     91      61.8954      0.00000
     92      62.9357      0.00000
     93      63.5943      0.00000
     94      63.8258      0.00000
     95      64.2962      0.00000
     96      64.3245      0.00000
     97      64.6432      0.00000
     98      64.7290      0.00000
     99      64.8535      0.00000
    100      64.9990      0.00000
    101      65.3637      0.00000
    102      65.8154      0.00000
    103      66.0061      0.00000
    104      66.6425      0.00000
    105      66.8727      0.00000
    106      67.2064      0.00000
    107      67.2820      0.00000
    108      67.7737      0.00000
    109      67.9526      0.00000
    110      68.2684      0.00000
    111      68.6133      0.00000
    112      68.7765      0.00000
    113      68.9892      0.00000
    114      69.6004      0.00000
    115      69.9519      0.00000
    116      70.0395      0.00000
    117      70.0528      0.00000
    118      70.9007      0.00000
    119      70.9747      0.00000
    120      71.1133      0.00000
    121      71.3116      0.00000
    122      71.4351      0.00000
    123      71.9365      0.00000
    124      73.9908      0.00000
    125      74.9583      0.00000
    126      75.0009      0.00000
    127      75.3290      0.00000
    128      75.3376      0.00000

 k-point    72 :      -0.4688    0.4688    0.0000
  band No.  band energies     occupation 
      1     -17.1662      2.00000
      2     -15.3372      2.00000
      3      -8.2500      2.00000
      4      -4.9659      2.00000
      5      -0.3462      0.00000
      6       6.4278      0.00000
      7       7.9556      0.00000
      8       8.9281      0.00000
      9       9.5784      0.00000
     10       9.8772      0.00000
     11      10.8296      0.00000
     12      11.1474      0.00000
     13      11.6068      0.00000
     14      11.8651      0.00000
     15      12.9899      0.00000
     16      13.7758      0.00000
     17      14.3250      0.00000
     18      15.5900      0.00000
     19      16.0848      0.00000
     20      17.2415      0.00000
     21      18.0507      0.00000
     22      18.2650      0.00000
     23      19.8629      0.00000
     24      20.5972      0.00000
     25      20.6208      0.00000
     26      20.9970      0.00000
     27      23.1110      0.00000
     28      23.3975      0.00000
     29      25.5266      0.00000
     30      26.3537      0.00000
     31      26.5975      0.00000
     32      27.3399      0.00000
     33      27.7651      0.00000
     34      28.4943      0.00000
     35      28.5203      0.00000
     36      28.6256      0.00000
     37      28.8670      0.00000
     38      29.2575      0.00000
     39      30.4964      0.00000
     40      30.5770      0.00000
     41      30.7342      0.00000
     42      30.8346      0.00000
     43      31.3026      0.00000
     44      33.4489      0.00000
     45      33.5666      0.00000
     46      34.3299      0.00000
     47      34.7475      0.00000
     48      35.0987      0.00000
     49      35.7148      0.00000
     50      36.2608      0.00000
     51      36.9002      0.00000
     52      38.3521      0.00000
     53      39.0575      0.00000
     54      40.0428      0.00000
     55      40.0459      0.00000
     56      40.4198      0.00000
     57      42.3134      0.00000
     58      43.9116      0.00000
     59      44.9654      0.00000
     60      46.4466      0.00000
     61      46.6241      0.00000
     62      46.7049      0.00000
     63      46.8371      0.00000
     64      47.3287      0.00000
     65      48.1354      0.00000
     66      48.5037      0.00000
     67      50.6353      0.00000
     68      51.6422      0.00000
     69      52.6666      0.00000
     70      54.1783      0.00000
     71      54.4620      0.00000
     72      54.4878      0.00000
     73      55.2521      0.00000
     74      55.7931      0.00000
     75      56.1673      0.00000
     76      56.4988      0.00000
     77      57.0100      0.00000
     78      57.3275      0.00000
     79      57.4066      0.00000
     80      58.4455      0.00000
     81      59.0276      0.00000
     82      59.2949      0.00000
     83      59.3855      0.00000
     84      59.5335      0.00000
     85      60.5005      0.00000
     86      60.8996      0.00000
     87      61.4557      0.00000
     88      61.7159      0.00000
     89      61.7941      0.00000
     90      61.9462      0.00000
     91      62.4101      0.00000
     92      63.2262      0.00000
     93      63.3212      0.00000
     94      63.4313      0.00000
     95      63.4853      0.00000
     96      63.5840      0.00000
     97      63.9478      0.00000
     98      64.3719      0.00000
     99      64.4771      0.00000
    100      64.7663      0.00000
    101      64.9974      0.00000
    102      65.3738      0.00000
    103      65.6414      0.00000
    104      65.7377      0.00000
    105      65.9223      0.00000
    106      65.9238      0.00000
    107      66.1954      0.00000
    108      66.9445      0.00000
    109      67.4182      0.00000
    110      67.5706      0.00000
    111      68.2718      0.00000
    112      68.8896      0.00000
    113      69.2043      0.00000
    114      69.7652      0.00000
    115      69.7983      0.00000
    116      70.2162      0.00000
    117      70.5881      0.00000
    118      70.6831      0.00000
    119      70.9804      0.00000
    120      71.5274      0.00000
    121      71.7089      0.00000
    122      71.9100      0.00000
    123      73.0302      0.00000
    124      73.2738      0.00000
    125      73.3157      0.00000
    126      73.5399      0.00000
    127      74.3257      0.00000
    128      74.4242      0.00000


--------------------------------------------------------------------------------------------------------


 soft charge-density along one line, spin component           1
         0         1         2         3         4         5         6         7         8         9
 total charge-density along one line
 
 pseudopotential strength for first ion, spin component:           1
 10.192   0.018  -0.000  -0.000  -0.000   0.000   0.000   0.000
  0.018  -0.002  -0.000   0.000   0.000   0.000   0.000   0.000
 -0.000  -0.000  -4.306   0.000  -0.000  -0.020   0.000  -0.000
 -0.000   0.000   0.000  -4.298  -0.000   0.000  -0.016  -0.000
 -0.000   0.000  -0.000  -0.000  -4.306  -0.000  -0.000  -0.020
  0.000   0.000  -0.020   0.000  -0.000  -0.771   0.000  -0.000
  0.000   0.000   0.000  -0.016  -0.000   0.000  -0.771  -0.000
  0.000   0.000  -0.000  -0.000  -0.020  -0.000  -0.000  -0.771
 total augmentation occupancy for first ion, spin component:           1
  1.481  -1.177  -0.012   0.000   0.000  -0.005   0.000   0.000
 -1.177   1.147   0.021   0.000   0.000   0.008   0.000   0.000
 -0.012   0.021   1.241   0.000   0.000   0.232   0.000  -0.000
  0.000   0.000   0.000   0.939   0.000  -0.000   0.107   0.000
  0.000   0.000   0.000   0.000   1.275  -0.000   0.000   0.232
 -0.005   0.008   0.232  -0.000  -0.000   0.049   0.000  -0.000
  0.000   0.000   0.000   0.107   0.000   0.000   0.014  -0.000
  0.000   0.000  -0.000   0.000   0.232  -0.000  -0.000   0.049


------------------------ aborting loop because EDIFF is reached ----------------------------------------


    CHARGE:  cpu time    0.0120: real time    0.0123
    FORLOC:  cpu time    0.0000: real time    0.0003
    FORNL :  cpu time    0.1180: real time    0.1177
    STRESS:  cpu time    0.2190: real time    0.2184
    FORHAR:  cpu time    0.0020: real time    0.0020
    MIXING:  cpu time    0.0000: real time    0.0003
    OFIELD:  cpu time    0.0000: real time    0.0000

  FORCE on cell =-STRESS in cart. coord.  units (eV):
  Direction    XX          YY          ZZ          XY          YZ          ZX
  --------------------------------------------------------------------------------------
  Alpha Z     4.10217     4.10217     4.10217
  Ewald    1191.00132  1190.26000 -1463.36937     0.00000    -0.00000     0.00000
  Hartree  1158.69747  1158.22719 -1147.44806     0.00000     0.00000    -0.00000
  E(xc)     -29.44184   -29.42381   -30.61470     0.00000    -0.00000     0.00000
  Local   -2436.04549 -2434.94407  2506.15639    -0.00000     0.00000    -0.00000
  n-local    -7.65834    -7.20052    -6.62822     0.30381    -0.00000     0.00000
  augment    -0.82127    -0.82050    -0.74042    -0.00000     0.00000    -0.00000
  Kinetic   123.80148   120.46748   138.53058    -2.46801     0.00000    -0.00000
  Fock        0.00000     0.00000     0.00000     0.00000     0.00000     0.00000
  -------------------------------------------------------------------------------------
  Total       3.63551     0.66795    -0.01163     0.00000     0.00000     0.00000
  in kB      73.31241    13.46960    -0.23460     0.00000     0.00000     0.00000
  external pressure =       28.85 kB  Pullay stress =        0.00 kB


 VOLUME and BASIS-vectors are now :
 -----------------------------------------------------------------------------
  energy-cutoff  :      520.00
  volume of cell :       79.45
      direct lattice vectors                 reciprocal lattice vectors
     1.197180704 -2.137714457  0.000000000     0.417647894 -0.233894662  0.000000000
     1.197180704  2.137714457  0.000000000     0.417647894  0.233894662  0.000000000
     0.000000000  0.000000000 15.522393743     0.000000000  0.000000000  0.064423053

  length of vectors
     2.450115250  2.450115250 15.522393743     0.478682020  0.478682020  0.064423053


 FORCES acting on ions
    electron-ion (+dipol)            ewald-force                    non-local-force                 convergence-correction
 -----------------------------------------------------------------------------------------------
   0.444E-13 -.544E+01 -.523E-13   0.120E-13 0.549E+01 -.180E-20   0.111E-15 -.575E-01 0.000E+00   0.478E-14 -.822E-03 0.425E-12
   -.171E-11 0.544E+01 -.122E-11   -.214E-13 -.549E+01 0.180E-20   0.555E-16 0.575E-01 -.207E-24   -.119E-14 0.822E-03 0.437E-12
 -----------------------------------------------------------------------------------------------
   -.167E-11 0.264E-11 -.127E-11   -.946E-14 0.178E-14 0.000E+00   0.167E-15 0.000E+00 -.207E-24   0.359E-14 0.284E-14 0.862E-12
 
 
 POSITION                                       TOTAL-FORCE (eV/Angst)
 -----------------------------------------------------------------------------------
      1.19718     -0.70889      7.76120         0.000000      0.000360      0.000000
      1.19718      0.70889      7.76120         0.000000     -0.000360     -0.000000
 -----------------------------------------------------------------------------------
    total drift:                               -0.000000      0.000000     -0.000000


--------------------------------------------------------------------------------------------------------



  FREE ENERGIE OF THE ION-ELECTRON SYSTEM (eV)
  ---------------------------------------------------
  free  energy   TOTEN  =       -18.38741238 eV

  energy  without entropy=      -18.38741238  energy(sigma->0) =      -18.38741238
 
 d Force = 0.3203176E-04[-0.373E-06, 0.644E-04]  d Energy = 0.3220656E-04-0.175E-06
 d Force =-0.5604601E-02[-0.571E-02,-0.550E-02]  d Ewald  =-0.5604660E-02 0.584E-07


--------------------------------------------------------------------------------------------------------


    POTLOK:  cpu time    0.0090: real time    0.0090


--------------------------------------------------------------------------------------------------------




--------------------------------------------------------------------------------------------------------


  
 reached required accuracy - stopping structural energy minimisation
     LOOP+:  cpu time   11.6702: real time   11.6897
    4ORBIT:  cpu time    0.0000: real time    0.0000

 total amount of memory used by VASP MPI-rank0    45233. kBytes
=======================================================================

   base      :      30000. kBytes
   nonl-proj :       1466. kBytes
   fftplans  :        727. kBytes
   grid      :       1094. kBytes
   one-center:          3. kBytes
   wavefun   :      11943. kBytes
 
  
  
 General timing and accounting informations for this job:
 ========================================================
  
                  Total CPU time used (sec):       98.939
                            User time (sec):       98.170
                          System time (sec):        0.769
                         Elapsed time (sec):       99.060
  
                   Maximum memory used (kb):       72492.
                   Average memory used (kb):           0.
  
                          Minor page faults:        12123
                          Major page faults:            0
                 Voluntary context switches:          314
