<?xml version="1.0" encoding="ISO-8859-1"?>
<modeling>
 <generator>
  <i name="program" type="string">vasp </i>
  <i name="version" type="string">5.4.4.18Apr17-6-g9f103f2a35  </i>
  <i name="subversion" type="string">(build Nov 22 2017 20:28:56) complex            parallel </i>
  <i name="platform" type="string">LinuxIFC </i>
  <i name="date" type="string">2019 10 06 </i>
  <i name="time" type="string">19:57:13 </i>
 </generator>
 <incar>
  <i type="int" name="ISTART">     0</i>
  <i type="string" name="PREC">accurate</i>
  <i type="int" name="IALGO">    48</i>
  <i type="string" name="ALGO"> Normal</i>
  <i type="int" name="NSIM">     4</i>
  <i type="int" name="IBRION">     2</i>
  <i name="EDIFF">      0.00000100</i>
  <i type="int" name="NSW">    50</i>
  <i type="int" name="ISIF">     2</i>
  <i type="int" name="ISYM">     2</i>
  <i name="ENCUT">    520.00000000</i>
  <i type="int" name="NBANDS">   128</i>
  <i name="POTIM">      0.10000000</i>
  <i type="logical" name="LPLANE"> T  </i>
  <i type="int" name="ISMEAR">     0</i>
  <i name="SIGMA">      0.10000000</i>
  <i type="logical" name="LWAVE"> F  </i>
  <i type="logical" name="LCHARG"> F  </i>
  <v type="int" name="KPOINT_BSE">    -1     0     0     0</v>
 </incar>
 <structure name="primitive_cell" >
  <crystal>
   <varray name="basis" >
    <v>       1.19718070      -2.13771446       0.00000000 </v>
    <v>       1.19718070       2.13771446       0.00000000 </v>
    <v>       0.00000000       0.00000000      15.52239374 </v>
   </varray>
   <i name="volume">     79.45076698 </i>
   <varray name="rec_basis" >
    <v>       0.41764789      -0.23389466       0.00000000 </v>
    <v>       0.41764789       0.23389466       0.00000000 </v>
    <v>       0.00000000       0.00000000       0.06442305 </v>
   </varray>
  </crystal>
  <varray name="positions" >
   <v>      -0.33333238       0.33333238      -0.50000000 </v>
   <v>       0.33333238      -0.33333238      -0.50000000 </v>
  </varray>
 </structure>
 <varray name="primitive_index" >
  <v type="int" >        1 </v>
  <v type="int" >        2 </v>
 </varray>
 <kpoints>
  <generation param="Monkhorst-Pack">
   <v type="int" name="divisions">      16       16        1 </v>
   <v name="usershift">      0.00000000       0.00000000       0.00000000 </v>
   <v name="genvec1">      0.06250000      -0.00000000       0.00000000 </v>
   <v name="genvec2">     -0.00000000       0.06250000       0.00000000 </v>
   <v name="genvec3">      0.00000000       0.00000000       1.00000000 </v>
   <v name="shift">      0.50000000       0.50000000       0.00000000 </v>
  </generation>
  <varray name="kpointlist" >
   <v>       0.03125000       0.03125000       0.00000000 </v>
   <v>       0.09375000       0.03125000       0.00000000 </v>
   <v>       0.15625000       0.03125000       0.00000000 </v>
   <v>       0.21875000       0.03125000       0.00000000 </v>
   <v>       0.28125000       0.03125000       0.00000000 </v>
   <v>       0.34375000       0.03125000       0.00000000 </v>
   <v>       0.40625000       0.03125000       0.00000000 </v>
   <v>       0.46875000       0.03125000       0.00000000 </v>
   <v>      -0.46875000       0.03125000       0.00000000 </v>
   <v>      -0.40625000       0.03125000       0.00000000 </v>
   <v>      -0.34375000       0.03125000       0.00000000 </v>
   <v>      -0.28125000       0.03125000       0.00000000 </v>
   <v>      -0.21875000       0.03125000       0.00000000 </v>
   <v>      -0.15625000       0.03125000       0.00000000 </v>
   <v>      -0.09375000       0.03125000       0.00000000 </v>
   <v>      -0.03125000       0.03125000       0.00000000 </v>
   <v>       0.09375000       0.09375000       0.00000000 </v>
   <v>       0.15625000       0.09375000       0.00000000 </v>
   <v>       0.21875000       0.09375000       0.00000000 </v>
   <v>       0.28125000       0.09375000       0.00000000 </v>
   <v>       0.34375000       0.09375000       0.00000000 </v>
   <v>       0.40625000       0.09375000       0.00000000 </v>
   <v>       0.46875000       0.09375000       0.00000000 </v>
   <v>      -0.46875000       0.09375000       0.00000000 </v>
   <v>      -0.40625000       0.09375000       0.00000000 </v>
   <v>      -0.34375000       0.09375000       0.00000000 </v>
   <v>      -0.28125000       0.09375000       0.00000000 </v>
   <v>      -0.21875000       0.09375000       0.00000000 </v>
   <v>      -0.15625000       0.09375000       0.00000000 </v>
   <v>      -0.09375000       0.09375000       0.00000000 </v>
   <v>       0.15625000       0.15625000       0.00000000 </v>
   <v>       0.21875000       0.15625000       0.00000000 </v>
   <v>       0.28125000       0.15625000       0.00000000 </v>
   <v>       0.34375000       0.15625000       0.00000000 </v>
   <v>       0.40625000       0.15625000       0.00000000 </v>
   <v>       0.46875000       0.15625000       0.00000000 </v>
   <v>      -0.46875000       0.15625000       0.00000000 </v>
   <v>      -0.40625000       0.15625000       0.00000000 </v>
   <v>      -0.34375000       0.15625000       0.00000000 </v>
   <v>      -0.28125000       0.15625000       0.00000000 </v>
   <v>      -0.21875000       0.15625000       0.00000000 </v>
   <v>      -0.15625000       0.15625000       0.00000000 </v>
   <v>       0.21875000       0.21875000       0.00000000 </v>
   <v>       0.28125000       0.21875000       0.00000000 </v>
   <v>       0.34375000       0.21875000       0.00000000 </v>
   <v>       0.40625000       0.21875000       0.00000000 </v>
   <v>       0.46875000       0.21875000       0.00000000 </v>
   <v>      -0.46875000       0.21875000       0.00000000 </v>
   <v>      -0.40625000       0.21875000       0.00000000 </v>
   <v>      -0.34375000       0.21875000       0.00000000 </v>
   <v>      -0.28125000       0.21875000       0.00000000 </v>
   <v>      -0.21875000       0.21875000       0.00000000 </v>
   <v>       0.28125000       0.28125000       0.00000000 </v>
   <v>       0.34375000       0.28125000       0.00000000 </v>
   <v>       0.40625000       0.28125000       0.00000000 </v>
   <v>       0.46875000       0.28125000       0.00000000 </v>
   <v>      -0.46875000       0.28125000       0.00000000 </v>
   <v>      -0.40625000       0.28125000       0.00000000 </v>
   <v>      -0.34375000       0.28125000       0.00000000 </v>
   <v>      -0.28125000       0.28125000       0.00000000 </v>
   <v>       0.34375000       0.34375000       0.00000000 </v>
   <v>       0.40625000       0.34375000       0.00000000 </v>
   <v>       0.46875000       0.34375000       0.00000000 </v>
   <v>      -0.46875000       0.34375000       0.00000000 </v>
   <v>      -0.40625000       0.34375000       0.00000000 </v>
   <v>      -0.34375000       0.34375000       0.00000000 </v>
   <v>       0.40625000       0.40625000       0.00000000 </v>
   <v>       0.46875000       0.40625000       0.00000000 </v>
   <v>      -0.46875000       0.40625000       0.00000000 </v>
   <v>      -0.40625000       0.40625000       0.00000000 </v>
   <v>       0.46875000       0.46875000       0.00000000 </v>
   <v>      -0.46875000       0.46875000       0.00000000 </v>
  </varray>
  <varray name="weights" >
   <v>       0.00781250 </v>
   <v>       0.01562500 </v>
   <v>       0.01562500 </v>
   <v>       0.01562500 </v>
   <v>       0.01562500 </v>
   <v>       0.01562500 </v>
   <v>       0.01562500 </v>
   <v>       0.01562500 </v>
   <v>       0.01562500 </v>
   <v>       0.01562500 </v>
   <v>       0.01562500 </v>
   <v>       0.01562500 </v>
   <v>       0.01562500 </v>
   <v>       0.01562500 </v>
   <v>       0.01562500 </v>
   <v>       0.00781250 </v>
   <v>       0.00781250 </v>
   <v>       0.01562500 </v>
   <v>       0.01562500 </v>
   <v>       0.01562500 </v>
   <v>       0.01562500 </v>
   <v>       0.01562500 </v>
   <v>       0.01562500 </v>
   <v>       0.01562500 </v>
   <v>       0.01562500 </v>
   <v>       0.01562500 </v>
   <v>       0.01562500 </v>
   <v>       0.01562500 </v>
   <v>       0.01562500 </v>
   <v>       0.00781250 </v>
   <v>       0.00781250 </v>
   <v>       0.01562500 </v>
   <v>       0.01562500 </v>
   <v>       0.01562500 </v>
   <v>       0.01562500 </v>
   <v>       0.01562500 </v>
   <v>       0.01562500 </v>
   <v>       0.01562500 </v>
   <v>       0.01562500 </v>
   <v>       0.01562500 </v>
   <v>       0.01562500 </v>
   <v>       0.00781250 </v>
   <v>       0.00781250 </v>
   <v>       0.01562500 </v>
   <v>       0.01562500 </v>
   <v>       0.01562500 </v>
   <v>       0.01562500 </v>
   <v>       0.01562500 </v>
   <v>       0.01562500 </v>
   <v>       0.01562500 </v>
   <v>       0.01562500 </v>
   <v>       0.00781250 </v>
   <v>       0.00781250 </v>
   <v>       0.01562500 </v>
   <v>       0.01562500 </v>
   <v>       0.01562500 </v>
   <v>       0.01562500 </v>
   <v>       0.01562500 </v>
   <v>       0.01562500 </v>
   <v>       0.00781250 </v>
   <v>       0.00781250 </v>
   <v>       0.01562500 </v>
   <v>       0.01562500 </v>
   <v>       0.01562500 </v>
   <v>       0.01562500 </v>
   <v>       0.00781250 </v>
   <v>       0.00781250 </v>
   <v>       0.01562500 </v>
   <v>       0.01562500 </v>
   <v>       0.00781250 </v>
   <v>       0.00781250 </v>
   <v>       0.00781250 </v>
  </varray>
 </kpoints>
 <parameters>
  <separator name="general" >
   <i type="string" name="SYSTEM">unknown system</i>
   <i type="logical" name="LCOMPAT"> F  </i>
  </separator>
  <separator name="electronic" >
   <i type="string" name="PREC">accura</i>
   <i name="ENMAX">    520.00000000</i>
   <i name="ENAUG">    644.87300000</i>
   <i name="EDIFF">      0.00000100</i>
   <i type="int" name="IALGO">    38</i>
   <i type="int" name="IWAVPR">    11</i>
   <i type="int" name="NBANDS">   128</i>
   <i name="NELECT">      8.00000000</i>
   <i type="int" name="TURBO">     0</i>
   <i type="int" name="IRESTART">     0</i>
   <i type="int" name="NREBOOT">     0</i>
   <i type="int" name="NMIN">     0</i>
   <i name="EREF">      0.00000000</i>
   <separator name="electronic smearing" >
    <i type="int" name="ISMEAR">     0</i>
    <i name="SIGMA">      0.10000000</i>
    <i name="KSPACING">      0.50000000</i>
    <i type="logical" name="KGAMMA"> T  </i>
   </separator>
   <separator name="electronic projectors" >
    <i type="logical" name="LREAL"> F  </i>
    <v name="ROPT">      0.00000000</v>
    <i type="int" name="LMAXPAW">  -100</i>
    <i type="int" name="LMAXMIX">     2</i>
    <i type="logical" name="NLSPLINE"> F  </i>
   </separator>
   <separator name="electronic startup" >
    <i type="int" name="ISTART">     0</i>
    <i type="int" name="ICHARG">     2</i>
    <i type="int" name="INIWAV">     1</i>
   </separator>
   <separator name="electronic spin" >
    <i type="int" name="ISPIN">     1</i>
    <i type="logical" name="LNONCOLLINEAR"> F  </i>
    <v name="MAGMOM">      1.00000000      1.00000000</v>
    <i name="NUPDOWN">     -1.00000000</i>
    <i type="logical" name="LSORBIT"> F  </i>
    <v name="SAXIS">      0.00000000      0.00000000      1.00000000</v>
    <i type="logical" name="LSPIRAL"> F  </i>
    <v name="QSPIRAL">      0.00000000      0.00000000      0.00000000</v>
    <i type="logical" name="LZEROZ"> F  </i>
   </separator>
   <separator name="electronic exchange-correlation" >
    <i type="logical" name="LASPH"> F  </i>
    <i type="logical" name="LMETAGGA"> F  </i>
   </separator>
   <separator name="electronic convergence" >
    <i type="int" name="NELM">    60</i>
    <i type="int" name="NELMDL">    -5</i>
    <i type="int" name="NELMIN">     2</i>
    <i name="ENINI">    520.00000000</i>
    <separator name="electronic convergence detail" >
     <i type="logical" name="LDIAG"> T  </i>
     <i type="logical" name="LSUBROT"> F  </i>
     <i name="WEIMIN">      0.00100000</i>
     <i name="EBREAK">      0.00000000</i>
     <i name="DEPER">      0.30000000</i>
     <i type="int" name="NRMM">     4</i>
     <i name="TIME">      0.40000000</i>
    </separator>
   </separator>
   <separator name="electronic mixer" >
    <i name="AMIX">      0.40000000</i>
    <i name="BMIX">      1.00000000</i>
    <i name="AMIN">      0.10000000</i>
    <i name="AMIX_MAG">      1.60000000</i>
    <i name="BMIX_MAG">      1.00000000</i>
    <separator name="electronic mixer details" >
     <i type="int" name="IMIX">     4</i>
     <i type="logical" name="MIXFIRST"> F  </i>
     <i type="int" name="MAXMIX">   -45</i>
     <i name="WC">    100.00000000</i>
     <i type="int" name="INIMIX">     1</i>
     <i type="int" name="MIXPRE">     1</i>
     <i type="int" name="MREMOVE">     5</i>
    </separator>
   </separator>
   <separator name="electronic dipolcorrection" >
    <i type="logical" name="LDIPOL"> F  </i>
    <i type="logical" name="LMONO"> F  </i>
    <i type="int" name="IDIPOL">     0</i>
    <i name="EPSILON">      1.00000000</i>
    <v name="DIPOL">   -100.00000000   -100.00000000   -100.00000000</v>
    <i name="EFIELD">      0.00000000</i>
   </separator>
  </separator>
  <separator name="grids" >
   <i type="int" name="NGX">    18</i>
   <i type="int" name="NGY">    18</i>
   <i type="int" name="NGZ">   120</i>
   <i type="int" name="NGXF">    36</i>
   <i type="int" name="NGYF">    36</i>
   <i type="int" name="NGZF">   240</i>
   <i type="logical" name="ADDGRID"> F  </i>
  </separator>
  <separator name="ionic" >
   <i type="int" name="NSW">    50</i>
   <i type="int" name="IBRION">     2</i>
   <i type="int" name="MDALGO">     0</i>
   <i type="int" name="ISIF">     2</i>
   <i name="PSTRESS">      0.00000000</i>
   <i name="EDIFFG">      0.00001000</i>
   <i type="int" name="NFREE">     1</i>
   <i name="POTIM">      0.10000000</i>
   <i name="SMASS">     -3.00000000</i>
   <i name="SCALEE">      1.00000000</i>
  </separator>
  <separator name="ionic md" >
   <i name="TEBEG">      0.00010000</i>
   <i name="TEEND">      0.00010000</i>
   <i type="int" name="NBLOCK">     1</i>
   <i type="int" name="KBLOCK">    50</i>
   <i type="int" name="NPACO">   256</i>
   <i name="APACO">     16.00000000</i>
  </separator>
  <separator name="symmetry" >
   <i type="int" name="ISYM">     2</i>
   <i name="SYMPREC">      0.00001000</i>
  </separator>
  <separator name="dos" >
   <i type="int" name="LORBIT">     0</i>
   <v name="RWIGS">     -1.00000000</v>
   <i type="int" name="NEDOS">   301</i>
   <i name="EMIN">     10.00000000</i>
   <i name="EMAX">    -10.00000000</i>
   <i name="EFERMI">      0.00000000</i>
  </separator>
  <separator name="writing" >
   <i type="int" name="NWRITE">     2</i>
   <i type="logical" name="LWAVE"> F  </i>
   <i type="logical" name="LDOWNSAMPLE"> F  </i>
   <i type="logical" name="LCHARG"> F  </i>
   <i type="logical" name="LPARD"> F  </i>
   <i type="logical" name="LVTOT"> F  </i>
   <i type="logical" name="LVHAR"> F  </i>
   <i type="logical" name="LELF"> F  </i>
   <i type="logical" name="LOPTICS"> F  </i>
   <v name="STM">      0.00000000      0.00000000      0.00000000      0.00000000      0.00000000      0.00000000      0.00000000</v>
  </separator>
  <separator name="performance" >
   <i type="int" name="NPAR">     4</i>
   <i type="int" name="NSIM">     4</i>
   <i type="int" name="NBLK">    -1</i>
   <i type="logical" name="LPLANE"> T  </i>
   <i type="logical" name="LSCALAPACK"> T  </i>
   <i type="logical" name="LSCAAWARE"> T  </i>
   <i type="logical" name="LSCALU"> F  </i>
   <i type="logical" name="LASYNC"> F  </i>
   <i type="logical" name="LORBITALREAL"> F  </i>
  </separator>
  <separator name="miscellaneous" >
   <i type="int" name="IDIOT">     3</i>
   <i type="int" name="ISPECIAL">     0</i>
   <i type="logical" name="LMUSIC"> F  </i>
   <v name="POMASS">     12.01100000</v>
   <v name="DARWINR">      0.00000000</v>
   <v name="DARWINV">      1.00000000</v>
   <i type="logical" name="LCORR"> T  </i>
  </separator>
  <i type="logical" name="GGA_COMPAT"> T  </i>
  <i type="logical" name="LBERRY"> F  </i>
  <i type="int" name="ICORELEVEL">     0</i>
  <i type="logical" name="LDAU"> F  </i>
  <i type="int" name="I_CONSTRAINED_M">     0</i>
  <separator name="electronic exchange-correlation" >
   <i type="string" name="GGA">--</i>
   <i type="int" name="VOSKOWN">     0</i>
   <i type="logical" name="LHFCALC"> F  </i>
   <i type="string" name="PRECFOCK"></i>
   <i type="logical" name="LSYMGRAD"> F  </i>
   <i type="logical" name="LHFONE"> F  </i>
   <i type="logical" name="LRHFCALC"> F  </i>
   <i type="logical" name="LTHOMAS"> F  </i>
   <i type="logical" name="LMODELHF"> F  </i>
   <i name="ENCUT4O">     -1.00000000</i>
   <i type="int" name="EXXOEP">     0</i>
   <i type="int" name="FOURORBIT">     0</i>
   <i name="AEXX">      0.00000000</i>
   <i name="HFALPHA">      0.00000000</i>
   <i name="MCALPHA">      0.00000000</i>
   <i name="ALDAX">      1.00000000</i>
   <i name="AGGAX">      1.00000000</i>
   <i name="ALDAC">      1.00000000</i>
   <i name="AGGAC">      1.00000000</i>
   <i type="int" name="NKREDX">     1</i>
   <i type="int" name="NKREDY">     1</i>
   <i type="int" name="NKREDZ">     1</i>
   <i type="logical" name="SHIFTRED"> F  </i>
   <i type="logical" name="ODDONLY"> F  </i>
   <i type="logical" name="EVENONLY"> F  </i>
   <i type="int" name="LMAXFOCK">     0</i>
   <i type="int" name="NMAXFOCKAE">     0</i>
   <i type="logical" name="LFOCKAEDFT"> F  </i>
   <i name="HFSCREEN">      0.00000000</i>
   <i name="HFSCREENC">      0.00000000</i>
   <i type="int" name="NBANDSGWLOW">     0</i>
  </separator>
  <separator name="vdW DFT" >
   <i type="logical" name="LUSE_VDW"> F  </i>
   <i name="Zab_VDW">     -0.84910000</i>
   <i name="PARAM1">      0.12340000</i>
   <i name="PARAM2">      1.00000000</i>
   <i name="PARAM3">      0.00000000</i>
  </separator>
  <separator name="model GW" >
   <i type="int" name="MODEL_GW">     0</i>
   <i name="MODEL_EPS0">     23.83523009</i>
   <i name="MODEL_ALPHA">      1.00000000</i>
  </separator>
  <separator name="linear response parameters" >
   <i type="logical" name="LEPSILON"> F  </i>
   <i type="logical" name="LRPA"> F  </i>
   <i type="logical" name="LNABLA"> F  </i>
   <i type="logical" name="LVEL"> F  </i>
   <i type="int" name="KINTER">     0</i>
   <i name="CSHIFT">      0.10000000</i>
   <i name="OMEGAMAX">     -1.00000000</i>
   <i name="DEG_THRESHOLD">      0.00200000</i>
   <i name="RTIME">     -0.10000000</i>
   <i name="WPLASMAI">      0.00000000</i>
   <v name="DFIELD">      0.00000000      0.00000000      0.00000000</v>
   <v name="WPLASMA">      0.00000000      0.00000000      0.00000000      0.00000000      0.00000000      0.00000000      0.00000000      0.00000000      0.00000000</v>
  </separator>
  <separator name="orbital magnetization" >
   <i type="logical" name="NUCIND"> F  </i>
   <v name="MAGPOS">      0.00000000      0.00000000      0.00000000</v>
   <i type="logical" name="LNICSALL"> T  </i>
   <i type="logical" name="ORBITALMAG"> F  </i>
   <i type="logical" name="LMAGBLOCH"> F  </i>
   <i type="logical" name="LCHIMAG"> F  </i>
   <i type="logical" name="LGAUGE"> T  </i>
   <i type="int" name="MAGATOM">     0</i>
   <v name="MAGDIPOL">      0.00000000      0.00000000      0.00000000</v>
   <v name="AVECCONST">      0.00000000      0.00000000      0.00000000</v>
  </separator>
  <separator name="response functions" >
   <i type="logical" name="LADDER"> F  </i>
   <i type="logical" name="LRPAFORCE"> F  </i>
   <i type="logical" name="LFXC"> F  </i>
   <i type="logical" name="LHARTREE"> T  </i>
   <i type="int" name="IBSE">     0</i>
   <v type="int" name="KPOINT">    -1     0     0     0</v>
   <i type="logical" name="LTCTE"> F  </i>
   <i type="logical" name="LTETE"> F  </i>
   <i type="logical" name="LTRIPLET"> F  </i>
   <i type="logical" name="LFXCEPS"> F  </i>
   <i type="logical" name="LFXHEG"> F  </i>
   <i type="int" name="NATURALO">     2</i>
   <i type="logical" name="L2ORDER"> F  </i>
   <i type="logical" name="LMP2LT"> F  </i>
   <i type="logical" name="LUSEW"> F  </i>
   <i name="ENCUTGW">     -2.00000000</i>
   <i name="ENCUTGWSOFT">     -2.00000000</i>
   <i name="ENCUTLF">     -1.00000000</i>
   <i type="int" name="LMAXMP2">    -1</i>
   <i name="SCISSOR">      0.00000000</i>
   <i type="int" name="NOMEGA">     0</i>
   <i type="int" name="NOMEGAR">     0</i>
   <i type="int" name="NBANDSGW">    -1</i>
   <i type="int" name="NBANDSO">    -1</i>
   <i type="int" name="NBANDSV">    -1</i>
   <i type="int" name="NELM">     1</i>
   <i type="int" name="NELMHF">     1</i>
   <i type="int" name="DIM">     3</i>
   <i type="int" name="ANTIRES">     0</i>
   <i name="OMEGAMAX">    -30.00000000</i>
   <i name="OMEGAMIN">    -30.00000000</i>
   <i name="OMEGATL">   -200.00000000</i>
   <i type="int" name="OMEGAGRID">   140</i>
   <i name="CSHIFT">     -0.10000000</i>
   <i type="logical" name="SELFENERGY"> F  </i>
   <i type="logical" name="LSPECTRAL"> F  </i>
   <i type="logical" name="LSPECTRALGW"> F  </i>
   <i type="logical" name="LSINGLES"> F  </i>
   <i type="logical" name="LFERMIGW"> F  </i>
   <i type="logical" name="ODDONLYGW"> F  </i>
   <i type="logical" name="EVENONLYGW"> F  </i>
   <i type="int" name="NKREDLFX">     1</i>
   <i type="int" name="NKREDLFY">     1</i>
   <i type="int" name="NKREDLFZ">     1</i>
   <i type="int" name="MAXMEM">  2800</i>
   <i type="int" name="TELESCOPE">     0</i>
   <i type="int" name="TAUPAR">     1</i>
   <i type="int" name="OMEGAPAR">    -1</i>
   <i name="LAMBDA">      1.00000000</i>
  </separator>
  <separator name="External order field" >
   <i name="OFIELD_KAPPA">      0.00000000</i>
   <v name="OFIELD_K">      0.00000000      0.00000000      0.00000000</v>
   <i name="OFIELD_Q6_NEAR">      0.00000000</i>
   <i name="OFIELD_Q6_FAR">      0.00000000</i>
   <i name="OFIELD_A">      0.00000000</i>
  </separator>
 </parameters>
 <atominfo>
  <atoms>       2 </atoms>
  <types>       1 </types>
  <array name="atoms" >
   <dimension dim="1">ion</dimension>
   <field type="string">element</field>
   <field type="int">atomtype</field>
   <set>
    <rc><c>C </c><c>   1</c></rc>
    <rc><c>C </c><c>   1</c></rc>
   </set>
  </array>
  <array name="atomtypes" >
   <dimension dim="1">type</dimension>
   <field type="int">atomspertype</field>
   <field type="string">element</field>
   <field>mass</field>
   <field>valence</field>
   <field type="string">pseudopotential</field>
   <set>
    <rc><c>   2</c><c>C </c><c>     12.01100000</c><c>      4.00000000</c><c> PAW_PBE C 08Apr2002                    </c></rc>
   </set>
  </array>
 </atominfo>
 <structure name="initialpos" >
  <crystal>
   <varray name="basis" >
    <v>       1.19718070      -2.13771446       0.00000000 </v>
    <v>       1.19718070       2.13771446       0.00000000 </v>
    <v>       0.00000000       0.00000000      15.52239374 </v>
   </varray>
   <i name="volume">     79.45076698 </i>
   <varray name="rec_basis" >
    <v>       0.41764789      -0.23389466       0.00000000 </v>
    <v>       0.41764789       0.23389466       0.00000000 </v>
    <v>       0.00000000       0.00000000       0.06442305 </v>
   </varray>
  </crystal>
  <varray name="positions" >
   <v>       0.66666762       0.33333238       0.50000000 </v>
   <v>       0.33333238       0.66666762       0.50000000 </v>
  </varray>
 </structure>
 <calculation>
  <scstep>
   <time name="dav">    3.48    3.49</time>
   <time name="total">    3.50    3.50</time>
   <energy>
    <i name="alphaZ">      4.10217130 </i>
    <i name="ewald">    917.93748368 </i>
    <i name="hartreedc">  -1133.62567946 </i>
    <i name="XCdc">     27.75148937 </i>
    <i name="pawpsdc">     75.66288619 </i>
    <i name="pawaedc">    -77.96384553 </i>
    <i name="eentropy">     -0.00000000 </i>
    <i name="bandstr">    -66.59172230 </i>
    <i name="atom">    294.29778662 </i>
    <i name="e_fr_energy">     41.57056987 </i>
    <i name="e_wo_entrp">     41.57056987 </i>
    <i name="e_0_energy">     41.57056987 </i>
   </energy>
  </scstep>
  <scstep>
   <time name="dav">    3.96    3.96</time>
   <time name="total">    3.96    3.96</time>
   <energy>
    <i name="e_fr_energy">    -18.20948096 </i>
    <i name="e_wo_entrp">    -18.20948096 </i>
    <i name="e_0_energy">    -18.20948096 </i>
   </energy>
  </scstep>
  <scstep>
   <time name="dav">    3.89    3.90</time>
   <time name="total">    3.89    3.90</time>
   <energy>
    <i name="e_fr_energy">    -19.84779144 </i>
    <i name="e_wo_entrp">    -19.84779144 </i>
    <i name="e_0_energy">    -19.84779144 </i>
   </energy>
  </scstep>
  <scstep>
   <time name="dav">    3.85    3.85</time>
   <time name="total">    3.85    3.85</time>
   <energy>
    <i name="e_fr_energy">    -19.85038203 </i>
    <i name="e_wo_entrp">    -19.85038203 </i>
    <i name="e_0_energy">    -19.85038203 </i>
   </energy>
  </scstep>
  <scstep>
   <time name="dav">    3.81    3.81</time>
   <time name="total">    3.83    3.83</time>
   <energy>
    <i name="e_fr_energy">    -19.85038727 </i>
    <i name="e_wo_entrp">    -19.85038727 </i>
    <i name="e_0_energy">    -19.85038727 </i>
   </energy>
  </scstep>
  <scstep>
   <time name="dav">    3.97    3.97</time>
   <time name="total">    3.99    4.00</time>
   <energy>
    <i name="e_fr_energy">    -18.79613741 </i>
    <i name="e_wo_entrp">    -18.79613741 </i>
    <i name="e_0_energy">    -18.79613741 </i>
   </energy>
  </scstep>
  <scstep>
   <time name="dav">    3.80    3.81</time>
   <time name="total">    3.83    3.83</time>
   <energy>
    <i name="e_fr_energy">    -18.39819803 </i>
    <i name="e_wo_entrp">    -18.39819803 </i>
    <i name="e_0_energy">    -18.39819803 </i>
   </energy>
  </scstep>
  <scstep>
   <time name="dav">    3.91    3.91</time>
   <time name="total">    3.93    3.94</time>
   <energy>
    <i name="e_fr_energy">    -18.38789974 </i>
    <i name="e_wo_entrp">    -18.38789974 </i>
    <i name="e_0_energy">    -18.38789974 </i>
   </energy>
  </scstep>
  <scstep>
   <time name="dav">    3.89    3.89</time>
   <time name="total">    3.91    3.92</time>
   <energy>
    <i name="e_fr_energy">    -18.38522657 </i>
    <i name="e_wo_entrp">    -18.38522657 </i>
    <i name="e_0_energy">    -18.38522657 </i>
   </energy>
  </scstep>
  <scstep>
   <time name="dav">    3.84    3.84</time>
   <time name="total">    3.86    3.86</time>
   <energy>
    <i name="e_fr_energy">    -18.38459151 </i>
    <i name="e_wo_entrp">    -18.38459151 </i>
    <i name="e_0_energy">    -18.38459151 </i>
   </energy>
  </scstep>
  <scstep>
   <time name="dav">    3.84    3.85</time>
   <time name="total">    3.87    3.87</time>
   <energy>
    <i name="e_fr_energy">    -18.38407422 </i>
    <i name="e_wo_entrp">    -18.38407422 </i>
    <i name="e_0_energy">    -18.38407422 </i>
   </energy>
  </scstep>
  <scstep>
   <time name="dav">    3.69    3.69</time>
   <time name="total">    3.72    3.72</time>
   <energy>
    <i name="e_fr_energy">    -18.38501915 </i>
    <i name="e_wo_entrp">    -18.38501915 </i>
    <i name="e_0_energy">    -18.38501915 </i>
   </energy>
  </scstep>
  <scstep>
   <time name="dav">    3.74    3.75</time>
   <time name="total">    3.77    3.77</time>
   <energy>
    <i name="e_fr_energy">    -18.38562697 </i>
    <i name="e_wo_entrp">    -18.38562697 </i>
    <i name="e_0_energy">    -18.38562697 </i>
   </energy>
  </scstep>
  <scstep>
   <time name="dav">    3.83    3.83</time>
   <time name="total">    3.85    3.86</time>
   <energy>
    <i name="e_fr_energy">    -18.38569067 </i>
    <i name="e_wo_entrp">    -18.38569067 </i>
    <i name="e_0_energy">    -18.38569067 </i>
   </energy>
  </scstep>
  <scstep>
   <time name="dav">    3.82    3.82</time>
   <time name="total">    3.85    3.85</time>
   <energy>
    <i name="e_fr_energy">    -18.38578940 </i>
    <i name="e_wo_entrp">    -18.38578940 </i>
    <i name="e_0_energy">    -18.38578940 </i>
   </energy>
  </scstep>
  <scstep>
   <time name="dav">    3.85    3.86</time>
   <time name="total">    3.88    3.88</time>
   <energy>
    <i name="e_fr_energy">    -18.38580054 </i>
    <i name="e_wo_entrp">    -18.38580054 </i>
    <i name="e_0_energy">    -18.38580054 </i>
   </energy>
  </scstep>
  <scstep>
   <time name="dav">    3.82    3.83</time>
   <time name="total">    3.85    3.85</time>
   <energy>
    <i name="e_fr_energy">    -18.38580384 </i>
    <i name="e_wo_entrp">    -18.38580384 </i>
    <i name="e_0_energy">    -18.38580384 </i>
   </energy>
  </scstep>
  <scstep>
   <time name="dav">    3.73    3.73</time>
   <time name="total">    3.74    3.75</time>
   <energy>
    <i name="alphaZ">      4.10217130 </i>
    <i name="ewald">    917.93748368 </i>
    <i name="hartreedc">  -1169.51426746 </i>
    <i name="XCdc">     29.03556014 </i>
    <i name="pawpsdc">    144.95389171 </i>
    <i name="pawaedc">   -147.56977987 </i>
    <i name="eentropy">     -0.00000000 </i>
    <i name="bandstr">    -91.62865081 </i>
    <i name="atom">    294.29778662 </i>
    <i name="e_fr_energy">    -18.38580468 </i>
    <i name="e_wo_entrp">    -18.38580468 </i>
    <i name="e_0_energy">    -18.38580468 </i>
   </energy>
  </scstep>
  <structure>
   <crystal>
    <varray name="basis" >
     <v>       1.19718070      -2.13771446       0.00000000 </v>
     <v>       1.19718070       2.13771446       0.00000000 </v>
     <v>       0.00000000       0.00000000      15.52239374 </v>
    </varray>
    <i name="volume">     79.45076698 </i>
    <varray name="rec_basis" >
     <v>       0.41764789      -0.23389466       0.00000000 </v>
     <v>       0.41764789       0.23389466       0.00000000 </v>
     <v>       0.00000000       0.00000000       0.06442305 </v>
    </varray>
   </crystal>
   <varray name="positions" >
    <v>       0.66666762       0.33333238       0.50000000 </v>
    <v>       0.33333238       0.66666762       0.50000000 </v>
   </varray>
  </structure>
  <varray name="forces" >
   <v>       0.00000000       0.43535602       0.00000000 </v>
   <v>       0.00000000      -0.43535602      -0.00000000 </v>
  </varray>
  <varray name="stress" >
   <v>      76.00296678      -0.00000000       0.00000000 </v>
   <v>       0.00000000      11.77491245       0.00000000 </v>
   <v>       0.00000000       0.00000000      -0.23072434 </v>
  </varray>
  <energy>
   <i name="e_fr_energy">    -18.38580468 </i>
   <i name="e_wo_entrp">    -18.38580468 </i>
   <i name="e_0_energy">     -0.00000000 </i>
  </energy>
  <time name="totalsc">   69.65   69.72</time>
 </calculation>
 <calculation>
  <scstep>
   <time name="dav">    3.65    3.65</time>
   <time name="total">    3.67    3.68</time>
   <energy>
    <i name="alphaZ">      4.10217130 </i>
    <i name="ewald">    917.88641451 </i>
    <i name="hartreedc">  -1169.49269244 </i>
    <i name="XCdc">     29.03414029 </i>
    <i name="pawpsdc">    144.95383196 </i>
    <i name="pawaedc">   -147.56971959 </i>
    <i name="eentropy">     -0.00000000 </i>
    <i name="bandstr">    -91.59944132 </i>
    <i name="atom">    294.29778662 </i>
    <i name="e_fr_energy">    -18.38750868 </i>
    <i name="e_wo_entrp">    -18.38750868 </i>
    <i name="e_0_energy">    -18.38750868 </i>
   </energy>
  </scstep>
  <scstep>
   <time name="dav">    3.80    3.80</time>
   <time name="total">    3.82    3.82</time>
   <energy>
    <i name="e_fr_energy">    -18.38743162 </i>
    <i name="e_wo_entrp">    -18.38743162 </i>
    <i name="e_0_energy">    -18.38743162 </i>
   </energy>
  </scstep>
  <scstep>
   <time name="dav">    3.78    3.78</time>
   <time name="total">    3.80    3.80</time>
   <energy>
    <i name="e_fr_energy">    -18.38738026 </i>
    <i name="e_wo_entrp">    -18.38738026 </i>
    <i name="e_0_energy">    -18.38738026 </i>
   </energy>
  </scstep>
  <scstep>
   <time name="dav">    3.69    3.69</time>
   <time name="total">    3.70    3.71</time>
   <energy>
    <i name="alphaZ">      4.10217130 </i>
    <i name="ewald">    917.88641451 </i>
    <i name="hartreedc">  -1169.47480681 </i>
    <i name="XCdc">     29.03331936 </i>
    <i name="pawpsdc">    144.86369608 </i>
    <i name="pawaedc">   -147.47918735 </i>
    <i name="eentropy">     -0.00000000 </i>
    <i name="bandstr">    -91.61677388 </i>
    <i name="atom">    294.29778662 </i>
    <i name="e_fr_energy">    -18.38738018 </i>
    <i name="e_wo_entrp">    -18.38738017 </i>
    <i name="e_0_energy">    -18.38738018 </i>
   </energy>
  </scstep>
  <structure>
   <crystal>
    <varray name="basis" >
     <v>       1.19718070      -2.13771446       0.00000000 </v>
     <v>       1.19718070       2.13771446       0.00000000 </v>
     <v>       0.00000000       0.00000000      15.52239374 </v>
    </varray>
    <i name="volume">     79.45076698 </i>
    <varray name="rec_basis" >
     <v>       0.41764789      -0.23389466       0.00000000 </v>
     <v>       0.41764789       0.23389466       0.00000000 </v>
     <v>       0.00000000       0.00000000       0.06442305 </v>
    </varray>
   </crystal>
   <varray name="positions" >
    <v>       0.66568514       0.33431486       0.50000000 </v>
    <v>       0.33431486       0.66568514       0.50000000 </v>
   </varray>
  </structure>
  <varray name="forces" >
   <v>       0.00000000      -0.06205529       0.00000000 </v>
   <v>       0.00000000       0.06205529       0.00000000 </v>
  </varray>
  <varray name="stress" >
   <v>      72.92394192      -0.00000000       0.00000000 </v>
   <v>       0.00000000      13.74990964       0.00000000 </v>
   <v>       0.00000000       0.00000000      -0.23145075 </v>
  </varray>
  <energy>
   <i name="e_fr_energy">    -18.38738018 </i>
   <i name="e_wo_entrp">    -18.38738018 </i>
   <i name="e_0_energy">     -0.00000000 </i>
  </energy>
  <time name="totalsc">   15.58   15.60</time>
 </calculation>
 <calculation>
  <scstep>
   <time name="dav">    3.73    3.73</time>
   <time name="total">    3.75    3.75</time>
   <energy>
    <i name="alphaZ">      4.10217130 </i>
    <i name="ewald">    917.89201917 </i>
    <i name="hartreedc">  -1169.47667633 </i>
    <i name="XCdc">     29.03349234 </i>
    <i name="pawpsdc">    144.86021937 </i>
    <i name="pawaedc">   -147.47570428 </i>
    <i name="eentropy">     -0.00000000 </i>
    <i name="bandstr">    -91.62072239 </i>
    <i name="atom">    294.29778662 </i>
    <i name="e_fr_energy">    -18.38741419 </i>
    <i name="e_wo_entrp">    -18.38741419 </i>
    <i name="e_0_energy">    -18.38741419 </i>
   </energy>
  </scstep>
  <scstep>
   <time name="dav">    3.68    3.69</time>
   <time name="total">    3.71    3.71</time>
   <energy>
    <i name="e_fr_energy">    -18.38741314 </i>
    <i name="e_wo_entrp">    -18.38741314 </i>
    <i name="e_0_energy">    -18.38741314 </i>
   </energy>
  </scstep>
  <scstep>
   <time name="dav">    3.82    3.83</time>
   <time name="total">    3.84    3.84</time>
   <energy>
    <i name="alphaZ">      4.10217130 </i>
    <i name="ewald">    917.89201917 </i>
    <i name="hartreedc">  -1169.47794794 </i>
    <i name="XCdc">     29.03358231 </i>
    <i name="pawpsdc">    144.86980108 </i>
    <i name="pawaedc">   -147.48532816 </i>
    <i name="eentropy">     -0.00000000 </i>
    <i name="bandstr">    -91.61949675 </i>
    <i name="atom">    294.29778662 </i>
    <i name="e_fr_energy">    -18.38741238 </i>
    <i name="e_wo_entrp">    -18.38741238 </i>
    <i name="e_0_energy">    -18.38741238 </i>
   </energy>
  </scstep>
  <structure>
   <crystal>
    <varray name="basis" >
     <v>       1.19718070      -2.13771446       0.00000000 </v>
     <v>       1.19718070       2.13771446       0.00000000 </v>
     <v>       0.00000000       0.00000000      15.52239374 </v>
    </varray>
    <i name="volume">     79.45076698 </i>
    <varray name="rec_basis" >
     <v>       0.41764789      -0.23389466       0.00000000 </v>
     <v>       0.41764789       0.23389466       0.00000000 </v>
     <v>       0.00000000       0.00000000       0.06442305 </v>
    </varray>
   </crystal>
   <varray name="positions" >
    <v>       0.66580657       0.33419343       0.50000000 </v>
    <v>       0.33419343       0.66580657       0.50000000 </v>
   </varray>
  </structure>
  <varray name="forces" >
   <v>       0.00000000       0.00035962       0.00000000 </v>
   <v>       0.00000000      -0.00035962      -0.00000000 </v>
  </varray>
  <varray name="stress" >
   <v>      73.31241325      -0.00000000       0.00000000 </v>
   <v>       0.00000000      13.46959508       0.00000000 </v>
   <v>       0.00000000       0.00000000      -0.23460411 </v>
  </varray>
  <energy>
   <i name="e_fr_energy">    -18.38741238 </i>
   <i name="e_wo_entrp">    -18.38741238 </i>
   <i name="e_0_energy">     -0.00000000 </i>
  </energy>
  <time name="totalsc">   11.67   11.69</time>
  <eigenvalues>
   <array>
    <dimension dim="1">band</dimension>
    <dimension dim="2">kpoint</dimension>
    <dimension dim="3">spin</dimension>
    <field>eigene</field>
    <field>occ</field>
    <set>
     <set comment="spin 1">
      <set comment="kpoint 1">
       <r>  -21.9443    1.0000 </r>
       <r>   -9.9766    1.0000 </r>
       <r>   -5.5048    1.0000 </r>
       <r>   -5.2638    1.0000 </r>
       <r>    1.0735    0.0000 </r>
       <r>    1.9682    0.0000 </r>
       <r>    2.5124    0.0000 </r>
       <r>    4.2153    0.0000 </r>
       <r>    4.9495    0.0000 </r>
       <r>    6.4486    0.0000 </r>
       <r>    6.6670    0.0000 </r>
       <r>    7.8478    0.0000 </r>
       <r>    8.8863    0.0000 </r>
       <r>    9.5263    0.0000 </r>
       <r>   11.5727    0.0000 </r>
       <r>   12.8229    0.0000 </r>
       <r>   14.2038    0.0000 </r>
       <r>   18.9861    0.0000 </r>
       <r>   20.8596    0.0000 </r>
       <r>   21.2000    0.0000 </r>
       <r>   25.5485    0.0000 </r>
       <r>   25.8177    0.0000 </r>
       <r>   26.3297    0.0000 </r>
       <r>   28.7990    0.0000 </r>
       <r>   29.2679    0.0000 </r>
       <r>   30.7309    0.0000 </r>
       <r>   31.7510    0.0000 </r>
       <r>   31.9782    0.0000 </r>
       <r>   33.2036    0.0000 </r>
       <r>   33.2341    0.0000 </r>
       <r>   33.4347    0.0000 </r>
       <r>   33.5457    0.0000 </r>
       <r>   33.7273    0.0000 </r>
       <r>   33.7505    0.0000 </r>
       <r>   33.9344    0.0000 </r>
       <r>   35.0279    0.0000 </r>
       <r>   35.0779    0.0000 </r>
       <r>   35.3060    0.0000 </r>
       <r>   35.3442    0.0000 </r>
       <r>   35.6363    0.0000 </r>
       <r>   35.8007    0.0000 </r>
       <r>   35.8328    0.0000 </r>
       <r>   36.0601    0.0000 </r>
       <r>   36.8416    0.0000 </r>
       <r>   37.3431    0.0000 </r>
       <r>   37.4600    0.0000 </r>
       <r>   37.5305    0.0000 </r>
       <r>   37.8883    0.0000 </r>
       <r>   37.9278    0.0000 </r>
       <r>   38.1368    0.0000 </r>
       <r>   38.6433    0.0000 </r>
       <r>   38.9849    0.0000 </r>
       <r>   39.6471    0.0000 </r>
       <r>   39.8519    0.0000 </r>
       <r>   39.8624    0.0000 </r>
       <r>   40.0532    0.0000 </r>
       <r>   40.1420    0.0000 </r>
       <r>   40.2215    0.0000 </r>
       <r>   40.2339    0.0000 </r>
       <r>   41.1364    0.0000 </r>
       <r>   41.3027    0.0000 </r>
       <r>   41.4675    0.0000 </r>
       <r>   41.4844    0.0000 </r>
       <r>   42.2519    0.0000 </r>
       <r>   42.3078    0.0000 </r>
       <r>   42.5371    0.0000 </r>
       <r>   42.5501    0.0000 </r>
       <r>   44.0118    0.0000 </r>
       <r>   44.6666    0.0000 </r>
       <r>   44.8118    0.0000 </r>
       <r>   44.8222    0.0000 </r>
       <r>   45.4935    0.0000 </r>
       <r>   45.6627    0.0000 </r>
       <r>   45.8981    0.0000 </r>
       <r>   46.0373    0.0000 </r>
       <r>   46.4944    0.0000 </r>
       <r>   46.6463    0.0000 </r>
       <r>   46.8751    0.0000 </r>
       <r>   47.1391    0.0000 </r>
       <r>   47.9843    0.0000 </r>
       <r>   48.3999    0.0000 </r>
       <r>   49.3654    0.0000 </r>
       <r>   49.5964    0.0000 </r>
       <r>   49.9706    0.0000 </r>
       <r>   51.0320    0.0000 </r>
       <r>   51.4006    0.0000 </r>
       <r>   51.7891    0.0000 </r>
       <r>   51.8761    0.0000 </r>
       <r>   52.0648    0.0000 </r>
       <r>   52.4664    0.0000 </r>
       <r>   53.2537    0.0000 </r>
       <r>   53.3042    0.0000 </r>
       <r>   53.7311    0.0000 </r>
       <r>   53.9082    0.0000 </r>
       <r>   54.6567    0.0000 </r>
       <r>   56.9444    0.0000 </r>
       <r>   57.1387    0.0000 </r>
       <r>   57.9180    0.0000 </r>
       <r>   58.7260    0.0000 </r>
       <r>   59.0314    0.0000 </r>
       <r>   59.0759    0.0000 </r>
       <r>   59.8510    0.0000 </r>
       <r>   59.8698    0.0000 </r>
       <r>   60.2287    0.0000 </r>
       <r>   60.3872    0.0000 </r>
       <r>   61.1484    0.0000 </r>
       <r>   61.7001    0.0000 </r>
       <r>   61.7252    0.0000 </r>
       <r>   62.1342    0.0000 </r>
       <r>   65.0155    0.0000 </r>
       <r>   65.8039    0.0000 </r>
       <r>   66.1190    0.0000 </r>
       <r>   66.9603    0.0000 </r>
       <r>   67.5647    0.0000 </r>
       <r>   68.3396    0.0000 </r>
       <r>   68.7803    0.0000 </r>
       <r>   69.0084    0.0000 </r>
       <r>   69.8169    0.0000 </r>
       <r>   70.2762    0.0000 </r>
       <r>   70.3109    0.0000 </r>
       <r>   70.8384    0.0000 </r>
       <r>   71.9197    0.0000 </r>
       <r>   71.9940    0.0000 </r>
       <r>   72.3272    0.0000 </r>
       <r>   72.9152    0.0000 </r>
       <r>   74.2928    0.0000 </r>
       <r>   74.9750    0.0000 </r>
       <r>   75.7791    0.0000 </r>
      </set>
      <set comment="kpoint 2">
       <r>  -21.7018    1.0000 </r>
       <r>   -9.6850    1.0000 </r>
       <r>   -6.1932    1.0000 </r>
       <r>   -5.9111    1.0000 </r>
       <r>    1.4041    0.0000 </r>
       <r>    2.3017    0.0000 </r>
       <r>    2.8495    0.0000 </r>
       <r>    4.5474    0.0000 </r>
       <r>    5.2767    0.0000 </r>
       <r>    6.5630    0.0000 </r>
       <r>    7.4096    0.0000 </r>
       <r>    8.1713    0.0000 </r>
       <r>    8.7403    0.0000 </r>
       <r>    9.2210    0.0000 </r>
       <r>   12.1177    0.0000 </r>
       <r>   13.1267    0.0000 </r>
       <r>   14.5331    0.0000 </r>
       <r>   19.1974    0.0000 </r>
       <r>   21.1850    0.0000 </r>
       <r>   21.9758    0.0000 </r>
       <r>   23.6411    0.0000 </r>
       <r>   24.6825    0.0000 </r>
       <r>   26.3923    0.0000 </r>
       <r>   28.2153    0.0000 </r>
       <r>   29.0303    0.0000 </r>
       <r>   29.1106    0.0000 </r>
       <r>   29.6205    0.0000 </r>
       <r>   29.6872    0.0000 </r>
       <r>   30.0885    0.0000 </r>
       <r>   31.5693    0.0000 </r>
       <r>   31.6408    0.0000 </r>
       <r>   31.8420    0.0000 </r>
       <r>   31.9308    0.0000 </r>
       <r>   32.2791    0.0000 </r>
       <r>   32.5825    0.0000 </r>
       <r>   33.6057    0.0000 </r>
       <r>   33.8276    0.0000 </r>
       <r>   33.8289    0.0000 </r>
       <r>   34.1377    0.0000 </r>
       <r>   35.2579    0.0000 </r>
       <r>   35.5059    0.0000 </r>
       <r>   35.6397    0.0000 </r>
       <r>   35.9412    0.0000 </r>
       <r>   36.2624    0.0000 </r>
       <r>   36.3303    0.0000 </r>
       <r>   37.4295    0.0000 </r>
       <r>   37.7175    0.0000 </r>
       <r>   37.8789    0.0000 </r>
       <r>   37.9228    0.0000 </r>
       <r>   38.2337    0.0000 </r>
       <r>   38.5920    0.0000 </r>
       <r>   39.5123    0.0000 </r>
       <r>   39.7270    0.0000 </r>
       <r>   39.8017    0.0000 </r>
       <r>   40.0901    0.0000 </r>
       <r>   40.4862    0.0000 </r>
       <r>   40.9165    0.0000 </r>
       <r>   41.4558    0.0000 </r>
       <r>   42.3646    0.0000 </r>
       <r>   42.4854    0.0000 </r>
       <r>   42.6844    0.0000 </r>
       <r>   42.7722    0.0000 </r>
       <r>   43.1882    0.0000 </r>
       <r>   43.5866    0.0000 </r>
       <r>   43.7325    0.0000 </r>
       <r>   44.3526    0.0000 </r>
       <r>   44.6188    0.0000 </r>
       <r>   44.8051    0.0000 </r>
       <r>   44.8323    0.0000 </r>
       <r>   45.0450    0.0000 </r>
       <r>   45.1327    0.0000 </r>
       <r>   46.3704    0.0000 </r>
       <r>   46.4775    0.0000 </r>
       <r>   46.7891    0.0000 </r>
       <r>   47.2310    0.0000 </r>
       <r>   47.5204    0.0000 </r>
       <r>   47.8645    0.0000 </r>
       <r>   48.3820    0.0000 </r>
       <r>   48.5928    0.0000 </r>
       <r>   49.0662    0.0000 </r>
       <r>   49.2323    0.0000 </r>
       <r>   49.3590    0.0000 </r>
       <r>   49.6647    0.0000 </r>
       <r>   50.0860    0.0000 </r>
       <r>   50.9129    0.0000 </r>
       <r>   51.2118    0.0000 </r>
       <r>   51.4882    0.0000 </r>
       <r>   52.0504    0.0000 </r>
       <r>   52.2531    0.0000 </r>
       <r>   53.6381    0.0000 </r>
       <r>   54.6482    0.0000 </r>
       <r>   54.8472    0.0000 </r>
       <r>   55.5783    0.0000 </r>
       <r>   55.6373    0.0000 </r>
       <r>   56.0324    0.0000 </r>
       <r>   56.3014    0.0000 </r>
       <r>   57.0945    0.0000 </r>
       <r>   57.1546    0.0000 </r>
       <r>   58.1448    0.0000 </r>
       <r>   58.9047    0.0000 </r>
       <r>   59.3030    0.0000 </r>
       <r>   59.7347    0.0000 </r>
       <r>   60.5928    0.0000 </r>
       <r>   61.0384    0.0000 </r>
       <r>   61.1973    0.0000 </r>
       <r>   62.3843    0.0000 </r>
       <r>   62.9982    0.0000 </r>
       <r>   63.5680    0.0000 </r>
       <r>   64.1588    0.0000 </r>
       <r>   64.4848    0.0000 </r>
       <r>   65.2212    0.0000 </r>
       <r>   66.1840    0.0000 </r>
       <r>   66.9394    0.0000 </r>
       <r>   67.8712    0.0000 </r>
       <r>   68.0912    0.0000 </r>
       <r>   68.5471    0.0000 </r>
       <r>   68.5537    0.0000 </r>
       <r>   69.5884    0.0000 </r>
       <r>   70.3798    0.0000 </r>
       <r>   71.0436    0.0000 </r>
       <r>   71.2117    0.0000 </r>
       <r>   72.1519    0.0000 </r>
       <r>   73.2546    0.0000 </r>
       <r>   73.2818    0.0000 </r>
       <r>   74.0138    0.0000 </r>
       <r>   74.6431    0.0000 </r>
       <r>   75.6339    0.0000 </r>
       <r>   76.5583    0.0000 </r>
      </set>
      <set comment="kpoint 3">
       <r>  -21.2685    1.0000 </r>
       <r>   -9.1669    1.0000 </r>
       <r>   -7.5308    1.0000 </r>
       <r>   -6.5808    1.0000 </r>
       <r>    1.9965    0.0000 </r>
       <r>    2.8984    0.0000 </r>
       <r>    3.4537    0.0000 </r>
       <r>    5.1408    0.0000 </r>
       <r>    5.8492    0.0000 </r>
       <r>    6.4202    0.0000 </r>
       <r>    7.4589    0.0000 </r>
       <r>    8.7504    0.0000 </r>
       <r>    8.8790    0.0000 </r>
       <r>    9.8135    0.0000 </r>
       <r>   13.0482    0.0000 </r>
       <r>   13.6546    0.0000 </r>
       <r>   15.1173    0.0000 </r>
       <r>   19.3180    0.0000 </r>
       <r>   21.7208    0.0000 </r>
       <r>   21.8063    0.0000 </r>
       <r>   22.8523    0.0000 </r>
       <r>   23.2071    0.0000 </r>
       <r>   24.9835    0.0000 </r>
       <r>   25.8015    0.0000 </r>
       <r>   26.0948    0.0000 </r>
       <r>   27.0463    0.0000 </r>
       <r>   28.3623    0.0000 </r>
       <r>   28.5835    0.0000 </r>
       <r>   28.6579    0.0000 </r>
       <r>   29.0148    0.0000 </r>
       <r>   29.6758    0.0000 </r>
       <r>   30.0299    0.0000 </r>
       <r>   30.4644    0.0000 </r>
       <r>   30.7684    0.0000 </r>
       <r>   31.9859    0.0000 </r>
       <r>   32.1349    0.0000 </r>
       <r>   32.2141    0.0000 </r>
       <r>   32.2772    0.0000 </r>
       <r>   32.5519    0.0000 </r>
       <r>   32.6955    0.0000 </r>
       <r>   34.0374    0.0000 </r>
       <r>   34.5387    0.0000 </r>
       <r>   35.6852    0.0000 </r>
       <r>   35.8218    0.0000 </r>
       <r>   36.3303    0.0000 </r>
       <r>   36.9147    0.0000 </r>
       <r>   37.3303    0.0000 </r>
       <r>   37.6436    0.0000 </r>
       <r>   38.3552    0.0000 </r>
       <r>   38.5408    0.0000 </r>
       <r>   38.8439    0.0000 </r>
       <r>   38.9046    0.0000 </r>
       <r>   40.0810    0.0000 </r>
       <r>   40.3598    0.0000 </r>
       <r>   41.1184    0.0000 </r>
       <r>   41.4172    0.0000 </r>
       <r>   41.9701    0.0000 </r>
       <r>   42.2007    0.0000 </r>
       <r>   42.8118    0.0000 </r>
       <r>   43.0154    0.0000 </r>
       <r>   43.1391    0.0000 </r>
       <r>   43.4828    0.0000 </r>
       <r>   43.9364    0.0000 </r>
       <r>   44.2223    0.0000 </r>
       <r>   45.2652    0.0000 </r>
       <r>   45.4270    0.0000 </r>
       <r>   45.4401    0.0000 </r>
       <r>   46.1096    0.0000 </r>
       <r>   46.2560    0.0000 </r>
       <r>   47.0112    0.0000 </r>
       <r>   47.0416    0.0000 </r>
       <r>   47.6326    0.0000 </r>
       <r>   47.7635    0.0000 </r>
       <r>   48.6337    0.0000 </r>
       <r>   48.8923    0.0000 </r>
       <r>   49.0013    0.0000 </r>
       <r>   49.4686    0.0000 </r>
       <r>   49.7003    0.0000 </r>
       <r>   49.8599    0.0000 </r>
       <r>   50.2040    0.0000 </r>
       <r>   50.5368    0.0000 </r>
       <r>   51.3037    0.0000 </r>
       <r>   51.4711    0.0000 </r>
       <r>   51.8385    0.0000 </r>
       <r>   51.9676    0.0000 </r>
       <r>   52.2323    0.0000 </r>
       <r>   52.4359    0.0000 </r>
       <r>   52.6984    0.0000 </r>
       <r>   52.9845    0.0000 </r>
       <r>   54.8887    0.0000 </r>
       <r>   55.8991    0.0000 </r>
       <r>   55.9533    0.0000 </r>
       <r>   56.3755    0.0000 </r>
       <r>   56.5376    0.0000 </r>
       <r>   57.4188    0.0000 </r>
       <r>   57.5724    0.0000 </r>
       <r>   58.0684    0.0000 </r>
       <r>   58.3654    0.0000 </r>
       <r>   58.8456    0.0000 </r>
       <r>   59.5532    0.0000 </r>
       <r>   60.7210    0.0000 </r>
       <r>   60.9084    0.0000 </r>
       <r>   61.2764    0.0000 </r>
       <r>   61.5820    0.0000 </r>
       <r>   61.9260    0.0000 </r>
       <r>   63.4007    0.0000 </r>
       <r>   63.7065    0.0000 </r>
       <r>   64.4968    0.0000 </r>
       <r>   64.8975    0.0000 </r>
       <r>   65.7332    0.0000 </r>
       <r>   66.0928    0.0000 </r>
       <r>   66.5262    0.0000 </r>
       <r>   66.7649    0.0000 </r>
       <r>   67.7673    0.0000 </r>
       <r>   67.8377    0.0000 </r>
       <r>   68.1584    0.0000 </r>
       <r>   69.4793    0.0000 </r>
       <r>   71.3152    0.0000 </r>
       <r>   71.6990    0.0000 </r>
       <r>   71.9747    0.0000 </r>
       <r>   72.1516    0.0000 </r>
       <r>   73.3800    0.0000 </r>
       <r>   74.3938    0.0000 </r>
       <r>   74.4534    0.0000 </r>
       <r>   75.5254    0.0000 </r>
       <r>   75.6466    0.0000 </r>
       <r>   75.8195    0.0000 </r>
       <r>   76.1110    0.0000 </r>
      </set>
      <set comment="kpoint 4">
       <r>  -20.6471    1.0000 </r>
       <r>   -9.1239    1.0000 </r>
       <r>   -8.4317    1.0000 </r>
       <r>   -7.2911    1.0000 </r>
       <r>    2.8494    0.0000 </r>
       <r>    3.7524    0.0000 </r>
       <r>    4.3244    0.0000 </r>
       <r>    5.7918    0.0000 </r>
       <r>    6.0565    0.0000 </r>
       <r>    6.1000    0.0000 </r>
       <r>    6.7731    0.0000 </r>
       <r>    9.5752    0.0000 </r>
       <r>   10.6475    0.0000 </r>
       <r>   10.7069    0.0000 </r>
       <r>   14.2017    0.0000 </r>
       <r>   14.3600    0.0000 </r>
       <r>   15.9494    0.0000 </r>
       <r>   18.5320    0.0000 </r>
       <r>   21.1394    0.0000 </r>
       <r>   21.1708    0.0000 </r>
       <r>   21.8721    0.0000 </r>
       <r>   22.4339    0.0000 </r>
       <r>   22.6261    0.0000 </r>
       <r>   22.8949    0.0000 </r>
       <r>   24.3371    0.0000 </r>
       <r>   24.8871    0.0000 </r>
       <r>   25.6804    0.0000 </r>
       <r>   27.2555    0.0000 </r>
       <r>   27.4703    0.0000 </r>
       <r>   28.3098    0.0000 </r>
       <r>   28.6741    0.0000 </r>
       <r>   29.0767    0.0000 </r>
       <r>   29.3832    0.0000 </r>
       <r>   29.6772    0.0000 </r>
       <r>   30.0033    0.0000 </r>
       <r>   30.5547    0.0000 </r>
       <r>   30.8983    0.0000 </r>
       <r>   30.9116    0.0000 </r>
       <r>   31.3969    0.0000 </r>
       <r>   32.0247    0.0000 </r>
       <r>   33.3528    0.0000 </r>
       <r>   33.4261    0.0000 </r>
       <r>   34.1968    0.0000 </r>
       <r>   34.2974    0.0000 </r>
       <r>   34.9831    0.0000 </r>
       <r>   35.0775    0.0000 </r>
       <r>   36.5260    0.0000 </r>
       <r>   37.2530    0.0000 </r>
       <r>   37.9972    0.0000 </r>
       <r>   38.9358    0.0000 </r>
       <r>   39.2868    0.0000 </r>
       <r>   40.0266    0.0000 </r>
       <r>   40.2145    0.0000 </r>
       <r>   40.4358    0.0000 </r>
       <r>   40.8682    0.0000 </r>
       <r>   41.2873    0.0000 </r>
       <r>   42.4770    0.0000 </r>
       <r>   42.5767    0.0000 </r>
       <r>   43.1421    0.0000 </r>
       <r>   43.1421    0.0000 </r>
       <r>   43.9032    0.0000 </r>
       <r>   44.6690    0.0000 </r>
       <r>   44.8900    0.0000 </r>
       <r>   45.8013    0.0000 </r>
       <r>   45.9395    0.0000 </r>
       <r>   46.8896    0.0000 </r>
       <r>   46.9382    0.0000 </r>
       <r>   47.2921    0.0000 </r>
       <r>   47.7711    0.0000 </r>
       <r>   48.5457    0.0000 </r>
       <r>   48.6742    0.0000 </r>
       <r>   48.7626    0.0000 </r>
       <r>   48.8166    0.0000 </r>
       <r>   49.4428    0.0000 </r>
       <r>   49.4671    0.0000 </r>
       <r>   49.8798    0.0000 </r>
       <r>   50.2186    0.0000 </r>
       <r>   50.7744    0.0000 </r>
       <r>   51.1210    0.0000 </r>
       <r>   51.2262    0.0000 </r>
       <r>   53.3193    0.0000 </r>
       <r>   53.4539    0.0000 </r>
       <r>   54.4324    0.0000 </r>
       <r>   54.6023    0.0000 </r>
       <r>   54.7101    0.0000 </r>
       <r>   54.9092    0.0000 </r>
       <r>   54.9708    0.0000 </r>
       <r>   55.2631    0.0000 </r>
       <r>   55.4125    0.0000 </r>
       <r>   56.3504    0.0000 </r>
       <r>   56.8823    0.0000 </r>
       <r>   57.0869    0.0000 </r>
       <r>   57.2472    0.0000 </r>
       <r>   57.5308    0.0000 </r>
       <r>   58.1597    0.0000 </r>
       <r>   59.5815    0.0000 </r>
       <r>   59.9535    0.0000 </r>
       <r>   60.1800    0.0000 </r>
       <r>   60.8046    0.0000 </r>
       <r>   60.9324    0.0000 </r>
       <r>   61.7485    0.0000 </r>
       <r>   61.8181    0.0000 </r>
       <r>   62.0335    0.0000 </r>
       <r>   63.3597    0.0000 </r>
       <r>   63.4607    0.0000 </r>
       <r>   64.5330    0.0000 </r>
       <r>   65.1685    0.0000 </r>
       <r>   65.8425    0.0000 </r>
       <r>   66.1686    0.0000 </r>
       <r>   66.2219    0.0000 </r>
       <r>   66.4809    0.0000 </r>
       <r>   67.3892    0.0000 </r>
       <r>   67.6580    0.0000 </r>
       <r>   68.6044    0.0000 </r>
       <r>   69.1222    0.0000 </r>
       <r>   69.1583    0.0000 </r>
       <r>   70.2957    0.0000 </r>
       <r>   72.2802    0.0000 </r>
       <r>   72.5691    0.0000 </r>
       <r>   73.7925    0.0000 </r>
       <r>   73.8358    0.0000 </r>
       <r>   74.1219    0.0000 </r>
       <r>   74.2802    0.0000 </r>
       <r>   74.6053    0.0000 </r>
       <r>   74.9292    0.0000 </r>
       <r>   75.1868    0.0000 </r>
       <r>   76.3022    0.0000 </r>
       <r>   76.5938    0.0000 </r>
      </set>
      <set comment="kpoint 5">
       <r>  -19.8422    1.0000 </r>
       <r>  -10.8158    1.0000 </r>
       <r>   -7.9332    1.0000 </r>
       <r>   -7.4982    1.0000 </r>
       <r>    3.9593    0.0000 </r>
       <r>    4.0073    0.0000 </r>
       <r>    4.9207    0.0000 </r>
       <r>    5.4527    0.0000 </r>
       <r>    5.8586    0.0000 </r>
       <r>    7.1199    0.0000 </r>
       <r>    7.8702    0.0000 </r>
       <r>   10.6308    0.0000 </r>
       <r>   11.7576    0.0000 </r>
       <r>   12.5895    0.0000 </r>
       <r>   15.0406    0.0000 </r>
       <r>   15.1957    0.0000 </r>
       <r>   17.0125    0.0000 </r>
       <r>   17.2530    0.0000 </r>
       <r>   18.5718    0.0000 </r>
       <r>   19.4933    0.0000 </r>
       <r>   19.5917    0.0000 </r>
       <r>   20.9207    0.0000 </r>
       <r>   21.4042    0.0000 </r>
       <r>   21.9784    0.0000 </r>
       <r>   22.9495    0.0000 </r>
       <r>   23.4246    0.0000 </r>
       <r>   25.1951    0.0000 </r>
       <r>   25.4666    0.0000 </r>
       <r>   25.9575    0.0000 </r>
       <r>   27.0931    0.0000 </r>
       <r>   27.2364    0.0000 </r>
       <r>   27.5931    0.0000 </r>
       <r>   28.7245    0.0000 </r>
       <r>   28.8454    0.0000 </r>
       <r>   29.4080    0.0000 </r>
       <r>   29.9144    0.0000 </r>
       <r>   29.9265    0.0000 </r>
       <r>   30.2822    0.0000 </r>
       <r>   31.0972    0.0000 </r>
       <r>   31.3357    0.0000 </r>
       <r>   31.8811    0.0000 </r>
       <r>   32.1152    0.0000 </r>
       <r>   32.5089    0.0000 </r>
       <r>   33.0566    0.0000 </r>
       <r>   33.9650    0.0000 </r>
       <r>   34.8792    0.0000 </r>
       <r>   36.2798    0.0000 </r>
       <r>   36.2923    0.0000 </r>
       <r>   37.6487    0.0000 </r>
       <r>   37.8265    0.0000 </r>
       <r>   38.2832    0.0000 </r>
       <r>   38.8409    0.0000 </r>
       <r>   40.1566    0.0000 </r>
       <r>   40.4187    0.0000 </r>
       <r>   40.6032    0.0000 </r>
       <r>   40.9775    0.0000 </r>
       <r>   42.0331    0.0000 </r>
       <r>   43.0456    0.0000 </r>
       <r>   44.2619    0.0000 </r>
       <r>   44.7446    0.0000 </r>
       <r>   45.3046    0.0000 </r>
       <r>   45.4205    0.0000 </r>
       <r>   46.0054    0.0000 </r>
       <r>   46.1215    0.0000 </r>
       <r>   46.4210    0.0000 </r>
       <r>   46.7727    0.0000 </r>
       <r>   47.5064    0.0000 </r>
       <r>   48.3497    0.0000 </r>
       <r>   48.5546    0.0000 </r>
       <r>   49.0114    0.0000 </r>
       <r>   49.6798    0.0000 </r>
       <r>   50.6406    0.0000 </r>
       <r>   50.9294    0.0000 </r>
       <r>   51.8304    0.0000 </r>
       <r>   52.1617    0.0000 </r>
       <r>   52.2186    0.0000 </r>
       <r>   52.5621    0.0000 </r>
       <r>   53.1416    0.0000 </r>
       <r>   53.2510    0.0000 </r>
       <r>   53.7850    0.0000 </r>
       <r>   54.1763    0.0000 </r>
       <r>   54.3178    0.0000 </r>
       <r>   54.5718    0.0000 </r>
       <r>   55.0702    0.0000 </r>
       <r>   55.7360    0.0000 </r>
       <r>   56.2955    0.0000 </r>
       <r>   57.4583    0.0000 </r>
       <r>   57.5201    0.0000 </r>
       <r>   57.9349    0.0000 </r>
       <r>   58.2822    0.0000 </r>
       <r>   59.2034    0.0000 </r>
       <r>   59.7987    0.0000 </r>
       <r>   60.4206    0.0000 </r>
       <r>   60.5629    0.0000 </r>
       <r>   61.5622    0.0000 </r>
       <r>   61.8361    0.0000 </r>
       <r>   62.3236    0.0000 </r>
       <r>   62.6466    0.0000 </r>
       <r>   62.7559    0.0000 </r>
       <r>   63.2340    0.0000 </r>
       <r>   63.6306    0.0000 </r>
       <r>   63.7440    0.0000 </r>
       <r>   64.3059    0.0000 </r>
       <r>   64.7463    0.0000 </r>
       <r>   64.8340    0.0000 </r>
       <r>   64.8390    0.0000 </r>
       <r>   65.4466    0.0000 </r>
       <r>   65.9487    0.0000 </r>
       <r>   66.5125    0.0000 </r>
       <r>   66.5305    0.0000 </r>
       <r>   67.2637    0.0000 </r>
       <r>   69.0347    0.0000 </r>
       <r>   69.4744    0.0000 </r>
       <r>   69.7882    0.0000 </r>
       <r>   70.8002    0.0000 </r>
       <r>   71.2274    0.0000 </r>
       <r>   72.1240    0.0000 </r>
       <r>   72.1490    0.0000 </r>
       <r>   72.8359    0.0000 </r>
       <r>   73.0690    0.0000 </r>
       <r>   73.5068    0.0000 </r>
       <r>   74.6556    0.0000 </r>
       <r>   74.7740    0.0000 </r>
       <r>   74.9651    0.0000 </r>
       <r>   75.3648    0.0000 </r>
       <r>   75.8646    0.0000 </r>
       <r>   76.2168    0.0000 </r>
       <r>   76.7638    0.0000 </r>
      </set>
      <set comment="kpoint 6">
       <r>  -18.8611    1.0000 </r>
       <r>  -12.5042    1.0000 </r>
       <r>   -8.4422    1.0000 </r>
       <r>   -6.4080    1.0000 </r>
       <r>    2.2281    0.0000 </r>
       <r>    5.2867    0.0000 </r>
       <r>    5.6498    0.0000 </r>
       <r>    6.2729    0.0000 </r>
       <r>    6.8756    0.0000 </r>
       <r>    8.4813    0.0000 </r>
       <r>    9.2419    0.0000 </r>
       <r>   11.8649    0.0000 </r>
       <r>   13.0999    0.0000 </r>
       <r>   13.4823    0.0000 </r>
       <r>   14.6798    0.0000 </r>
       <r>   15.4896    0.0000 </r>
       <r>   16.3849    0.0000 </r>
       <r>   16.3901    0.0000 </r>
       <r>   17.6511    0.0000 </r>
       <r>   17.7317    0.0000 </r>
       <r>   18.3008    0.0000 </r>
       <r>   19.2854    0.0000 </r>
       <r>   19.8720    0.0000 </r>
       <r>   20.4457    0.0000 </r>
       <r>   22.2907    0.0000 </r>
       <r>   23.0853    0.0000 </r>
       <r>   24.3382    0.0000 </r>
       <r>   24.4633    0.0000 </r>
       <r>   25.0771    0.0000 </r>
       <r>   26.2907    0.0000 </r>
       <r>   26.7156    0.0000 </r>
       <r>   26.9403    0.0000 </r>
       <r>   27.4001    0.0000 </r>
       <r>   27.9295    0.0000 </r>
       <r>   28.7457    0.0000 </r>
       <r>   28.8866    0.0000 </r>
       <r>   29.2569    0.0000 </r>
       <r>   29.2707    0.0000 </r>
       <r>   29.6972    0.0000 </r>
       <r>   31.0662    0.0000 </r>
       <r>   31.4215    0.0000 </r>
       <r>   31.7009    0.0000 </r>
       <r>   32.3266    0.0000 </r>
       <r>   32.8749    0.0000 </r>
       <r>   33.5241    0.0000 </r>
       <r>   34.0810    0.0000 </r>
       <r>   35.2067    0.0000 </r>
       <r>   35.4395    0.0000 </r>
       <r>   35.5865    0.0000 </r>
       <r>   37.1376    0.0000 </r>
       <r>   37.5838    0.0000 </r>
       <r>   38.6611    0.0000 </r>
       <r>   39.1321    0.0000 </r>
       <r>   40.0237    0.0000 </r>
       <r>   40.9989    0.0000 </r>
       <r>   41.8952    0.0000 </r>
       <r>   42.1236    0.0000 </r>
       <r>   42.5107    0.0000 </r>
       <r>   43.0315    0.0000 </r>
       <r>   44.7150    0.0000 </r>
       <r>   44.9661    0.0000 </r>
       <r>   45.7380    0.0000 </r>
       <r>   45.8406    0.0000 </r>
       <r>   47.5115    0.0000 </r>
       <r>   47.8162    0.0000 </r>
       <r>   48.6706    0.0000 </r>
       <r>   49.7572    0.0000 </r>
       <r>   50.0462    0.0000 </r>
       <r>   50.1662    0.0000 </r>
       <r>   50.8252    0.0000 </r>
       <r>   51.9080    0.0000 </r>
       <r>   52.1703    0.0000 </r>
       <r>   52.2215    0.0000 </r>
       <r>   53.1007    0.0000 </r>
       <r>   53.2697    0.0000 </r>
       <r>   53.3048    0.0000 </r>
       <r>   53.8507    0.0000 </r>
       <r>   54.6714    0.0000 </r>
       <r>   55.5047    0.0000 </r>
       <r>   55.5803    0.0000 </r>
       <r>   55.8394    0.0000 </r>
       <r>   55.9644    0.0000 </r>
       <r>   56.0495    0.0000 </r>
       <r>   57.4605    0.0000 </r>
       <r>   57.7619    0.0000 </r>
       <r>   57.9832    0.0000 </r>
       <r>   59.0594    0.0000 </r>
       <r>   60.2792    0.0000 </r>
       <r>   60.3877    0.0000 </r>
       <r>   60.5976    0.0000 </r>
       <r>   61.6739    0.0000 </r>
       <r>   61.7724    0.0000 </r>
       <r>   62.0005    0.0000 </r>
       <r>   62.5016    0.0000 </r>
       <r>   62.9801    0.0000 </r>
       <r>   63.2448    0.0000 </r>
       <r>   63.6811    0.0000 </r>
       <r>   64.0712    0.0000 </r>
       <r>   64.5086    0.0000 </r>
       <r>   64.5957    0.0000 </r>
       <r>   64.8594    0.0000 </r>
       <r>   65.0271    0.0000 </r>
       <r>   65.6519    0.0000 </r>
       <r>   65.9266    0.0000 </r>
       <r>   66.4342    0.0000 </r>
       <r>   67.0860    0.0000 </r>
       <r>   67.7175    0.0000 </r>
       <r>   67.8344    0.0000 </r>
       <r>   68.4739    0.0000 </r>
       <r>   68.4838    0.0000 </r>
       <r>   68.8825    0.0000 </r>
       <r>   70.6091    0.0000 </r>
       <r>   70.8089    0.0000 </r>
       <r>   70.9096    0.0000 </r>
       <r>   71.4817    0.0000 </r>
       <r>   71.9512    0.0000 </r>
       <r>   72.0427    0.0000 </r>
       <r>   72.1300    0.0000 </r>
       <r>   72.2853    0.0000 </r>
       <r>   72.3954    0.0000 </r>
       <r>   72.7185    0.0000 </r>
       <r>   72.8104    0.0000 </r>
       <r>   73.5568    0.0000 </r>
       <r>   73.8231    0.0000 </r>
       <r>   74.0877    0.0000 </r>
       <r>   74.1637    0.0000 </r>
       <r>   74.5357    0.0000 </r>
       <r>   74.5972    0.0000 </r>
      </set>
      <set comment="kpoint 7">
       <r>  -17.7196    1.0000 </r>
       <r>  -14.1167    1.0000 </r>
       <r>   -8.7830    1.0000 </r>
       <r>   -5.2768    1.0000 </r>
       <r>    0.6062    0.0000 </r>
       <r>    5.4301    0.0000 </r>
       <r>    6.9673    0.0000 </r>
       <r>    7.8915    0.0000 </r>
       <r>    8.5435    0.0000 </r>
       <r>   10.0705    0.0000 </r>
       <r>   10.8671    0.0000 </r>
       <r>   11.8480    0.0000 </r>
       <r>   12.5653    0.0000 </r>
       <r>   13.5109    0.0000 </r>
       <r>   13.7792    0.0000 </r>
       <r>   14.6786    0.0000 </r>
       <r>   14.9671    0.0000 </r>
       <r>   15.6331    0.0000 </r>
       <r>   16.7574    0.0000 </r>
       <r>   17.2784    0.0000 </r>
       <r>   18.8588    0.0000 </r>
       <r>   19.0364    0.0000 </r>
       <r>   19.6748    0.0000 </r>
       <r>   19.7204    0.0000 </r>
       <r>   21.0734    0.0000 </r>
       <r>   21.6045    0.0000 </r>
       <r>   24.3681    0.0000 </r>
       <r>   24.3906    0.0000 </r>
       <r>   24.7325    0.0000 </r>
       <r>   25.6295    0.0000 </r>
       <r>   26.1714    0.0000 </r>
       <r>   26.3511    0.0000 </r>
       <r>   26.4775    0.0000 </r>
       <r>   27.3136    0.0000 </r>
       <r>   28.1018    0.0000 </r>
       <r>   28.2938    0.0000 </r>
       <r>   28.7757    0.0000 </r>
       <r>   28.8411    0.0000 </r>
       <r>   29.2087    0.0000 </r>
       <r>   30.4315    0.0000 </r>
       <r>   31.2498    0.0000 </r>
       <r>   31.2798    0.0000 </r>
       <r>   31.9655    0.0000 </r>
       <r>   32.3142    0.0000 </r>
       <r>   32.7962    0.0000 </r>
       <r>   33.6704    0.0000 </r>
       <r>   34.7980    0.0000 </r>
       <r>   34.8741    0.0000 </r>
       <r>   35.2762    0.0000 </r>
       <r>   36.4160    0.0000 </r>
       <r>   36.7249    0.0000 </r>
       <r>   38.1510    0.0000 </r>
       <r>   38.6003    0.0000 </r>
       <r>   39.9748    0.0000 </r>
       <r>   40.3826    0.0000 </r>
       <r>   40.8094    0.0000 </r>
       <r>   41.9668    0.0000 </r>
       <r>   42.6297    0.0000 </r>
       <r>   43.8384    0.0000 </r>
       <r>   44.5359    0.0000 </r>
       <r>   45.2771    0.0000 </r>
       <r>   46.5946    0.0000 </r>
       <r>   46.9230    0.0000 </r>
       <r>   48.0256    0.0000 </r>
       <r>   48.1728    0.0000 </r>
       <r>   49.5453    0.0000 </r>
       <r>   50.4276    0.0000 </r>
       <r>   50.5513    0.0000 </r>
       <r>   51.6220    0.0000 </r>
       <r>   52.7286    0.0000 </r>
       <r>   53.1347    0.0000 </r>
       <r>   53.7109    0.0000 </r>
       <r>   53.7896    0.0000 </r>
       <r>   54.7234    0.0000 </r>
       <r>   54.9052    0.0000 </r>
       <r>   54.9956    0.0000 </r>
       <r>   55.8084    0.0000 </r>
       <r>   55.8940    0.0000 </r>
       <r>   56.3824    0.0000 </r>
       <r>   57.2216    0.0000 </r>
       <r>   58.3314    0.0000 </r>
       <r>   58.6880    0.0000 </r>
       <r>   59.3690    0.0000 </r>
       <r>   59.5743    0.0000 </r>
       <r>   59.6642    0.0000 </r>
       <r>   59.7054    0.0000 </r>
       <r>   59.9892    0.0000 </r>
       <r>   60.5133    0.0000 </r>
       <r>   61.3686    0.0000 </r>
       <r>   61.5010    0.0000 </r>
       <r>   61.6368    0.0000 </r>
       <r>   61.7795    0.0000 </r>
       <r>   62.7809    0.0000 </r>
       <r>   63.0495    0.0000 </r>
       <r>   64.2169    0.0000 </r>
       <r>   64.4314    0.0000 </r>
       <r>   64.5692    0.0000 </r>
       <r>   65.0006    0.0000 </r>
       <r>   65.6789    0.0000 </r>
       <r>   65.8676    0.0000 </r>
       <r>   66.4194    0.0000 </r>
       <r>   66.5297    0.0000 </r>
       <r>   66.5663    0.0000 </r>
       <r>   66.7896    0.0000 </r>
       <r>   67.1013    0.0000 </r>
       <r>   67.3976    0.0000 </r>
       <r>   67.5086    0.0000 </r>
       <r>   67.6443    0.0000 </r>
       <r>   69.1590    0.0000 </r>
       <r>   69.2810    0.0000 </r>
       <r>   69.5548    0.0000 </r>
       <r>   69.7187    0.0000 </r>
       <r>   70.0041    0.0000 </r>
       <r>   70.3589    0.0000 </r>
       <r>   71.1657    0.0000 </r>
       <r>   71.1843    0.0000 </r>
       <r>   71.4501    0.0000 </r>
       <r>   71.5256    0.0000 </r>
       <r>   71.8348    0.0000 </r>
       <r>   71.8889    0.0000 </r>
       <r>   72.0902    0.0000 </r>
       <r>   72.1070    0.0000 </r>
       <r>   72.4487    0.0000 </r>
       <r>   73.0674    0.0000 </r>
       <r>   73.3078    0.0000 </r>
       <r>   73.7220    0.0000 </r>
       <r>   73.8510    0.0000 </r>
       <r>   74.1469    0.0000 </r>
      </set>
      <set comment="kpoint 8">
       <r>  -16.5319    1.0000 </r>
       <r>  -15.5081    1.0000 </r>
       <r>   -8.9376    1.0000 </r>
       <r>   -4.5028    1.0000 </r>
       <r>   -0.3871    0.0000 </r>
       <r>    5.3690    0.0000 </r>
       <r>    8.8132    0.0000 </r>
       <r>    9.7134    0.0000 </r>
       <r>    9.7704    0.0000 </r>
       <r>   10.4767    0.0000 </r>
       <r>   10.6778    0.0000 </r>
       <r>   11.4873    0.0000 </r>
       <r>   11.8685    0.0000 </r>
       <r>   12.7312    0.0000 </r>
       <r>   12.8545    0.0000 </r>
       <r>   13.6755    0.0000 </r>
       <r>   14.6512    0.0000 </r>
       <r>   16.1971    0.0000 </r>
       <r>   16.4259    0.0000 </r>
       <r>   17.1408    0.0000 </r>
       <r>   18.1473    0.0000 </r>
       <r>   18.6065    0.0000 </r>
       <r>   19.7936    0.0000 </r>
       <r>   20.6113    0.0000 </r>
       <r>   21.0922    0.0000 </r>
       <r>   21.5696    0.0000 </r>
       <r>   23.1916    0.0000 </r>
       <r>   23.7256    0.0000 </r>
       <r>   24.1717    0.0000 </r>
       <r>   25.5839    0.0000 </r>
       <r>   25.8035    0.0000 </r>
       <r>   25.9512    0.0000 </r>
       <r>   27.2003    0.0000 </r>
       <r>   27.2133    0.0000 </r>
       <r>   27.6131    0.0000 </r>
       <r>   28.2654    0.0000 </r>
       <r>   28.6218    0.0000 </r>
       <r>   29.0011    0.0000 </r>
       <r>   29.4850    0.0000 </r>
       <r>   29.4918    0.0000 </r>
       <r>   30.7957    0.0000 </r>
       <r>   31.0151    0.0000 </r>
       <r>   31.0564    0.0000 </r>
       <r>   31.7628    0.0000 </r>
       <r>   32.1798    0.0000 </r>
       <r>   34.3424    0.0000 </r>
       <r>   34.3658    0.0000 </r>
       <r>   34.7835    0.0000 </r>
       <r>   35.8619    0.0000 </r>
       <r>   36.3089    0.0000 </r>
       <r>   37.0824    0.0000 </r>
       <r>   37.7277    0.0000 </r>
       <r>   37.8214    0.0000 </r>
       <r>   38.3444    0.0000 </r>
       <r>   39.8511    0.0000 </r>
       <r>   40.6234    0.0000 </r>
       <r>   42.7077    0.0000 </r>
       <r>   42.7574    0.0000 </r>
       <r>   44.0595    0.0000 </r>
       <r>   45.6637    0.0000 </r>
       <r>   45.9884    0.0000 </r>
       <r>   46.9145    0.0000 </r>
       <r>   47.1055    0.0000 </r>
       <r>   47.4804    0.0000 </r>
       <r>   48.2947    0.0000 </r>
       <r>   49.4834    0.0000 </r>
       <r>   49.8260    0.0000 </r>
       <r>   51.6172    0.0000 </r>
       <r>   52.4420    0.0000 </r>
       <r>   53.4255    0.0000 </r>
       <r>   54.2861    0.0000 </r>
       <r>   54.9560    0.0000 </r>
       <r>   55.6139    0.0000 </r>
       <r>   55.8260    0.0000 </r>
       <r>   56.5156    0.0000 </r>
       <r>   56.5972    0.0000 </r>
       <r>   57.0950    0.0000 </r>
       <r>   57.1353    0.0000 </r>
       <r>   57.5838    0.0000 </r>
       <r>   57.6757    0.0000 </r>
       <r>   57.9304    0.0000 </r>
       <r>   58.7702    0.0000 </r>
       <r>   59.7615    0.0000 </r>
       <r>   60.3465    0.0000 </r>
       <r>   60.6626    0.0000 </r>
       <r>   61.2295    0.0000 </r>
       <r>   61.4780    0.0000 </r>
       <r>   62.1033    0.0000 </r>
       <r>   62.4485    0.0000 </r>
       <r>   62.7401    0.0000 </r>
       <r>   62.8173    0.0000 </r>
       <r>   63.0061    0.0000 </r>
       <r>   63.1089    0.0000 </r>
       <r>   63.3950    0.0000 </r>
       <r>   63.7012    0.0000 </r>
       <r>   63.9676    0.0000 </r>
       <r>   64.0045    0.0000 </r>
       <r>   64.2992    0.0000 </r>
       <r>   64.6274    0.0000 </r>
       <r>   64.7930    0.0000 </r>
       <r>   65.2218    0.0000 </r>
       <r>   65.3316    0.0000 </r>
       <r>   65.7642    0.0000 </r>
       <r>   65.8900    0.0000 </r>
       <r>   66.5342    0.0000 </r>
       <r>   66.6926    0.0000 </r>
       <r>   67.4605    0.0000 </r>
       <r>   68.0816    0.0000 </r>
       <r>   68.5973    0.0000 </r>
       <r>   68.6737    0.0000 </r>
       <r>   68.9633    0.0000 </r>
       <r>   69.1429    0.0000 </r>
       <r>   69.3350    0.0000 </r>
       <r>   69.5271    0.0000 </r>
       <r>   69.7233    0.0000 </r>
       <r>   69.8468    0.0000 </r>
       <r>   70.5266    0.0000 </r>
       <r>   70.9117    0.0000 </r>
       <r>   71.3905    0.0000 </r>
       <r>   71.4071    0.0000 </r>
       <r>   72.6311    0.0000 </r>
       <r>   73.5155    0.0000 </r>
       <r>   74.1115    0.0000 </r>
       <r>   74.3683    0.0000 </r>
       <r>   74.3939    0.0000 </r>
       <r>   74.6013    0.0000 </r>
       <r>   74.7650    0.0000 </r>
       <r>   74.9892    0.0000 </r>
      </set>
      <set comment="kpoint 9">
       <r>  -17.1381    1.0000 </r>
       <r>  -14.8263    1.0000 </r>
       <r>   -8.8989    1.0000 </r>
       <r>   -4.8155    1.0000 </r>
       <r>    0.0003    0.0000 </r>
       <r>    5.4029    0.0000 </r>
       <r>    7.8173    0.0000 </r>
       <r>    8.7421    0.0000 </r>
       <r>    9.4325    0.0000 </r>
       <r>   10.8673    0.0000 </r>
       <r>   10.8688    0.0000 </r>
       <r>   11.7257    0.0000 </r>
       <r>   11.7831    0.0000 </r>
       <r>   12.6638    0.0000 </r>
       <r>   13.5641    0.0000 </r>
       <r>   14.4611    0.0000 </r>
       <r>   14.7767    0.0000 </r>
       <r>   15.4770    0.0000 </r>
       <r>   16.3962    0.0000 </r>
       <r>   18.1214    0.0000 </r>
       <r>   18.2571    0.0000 </r>
       <r>   18.5342    0.0000 </r>
       <r>   19.6814    0.0000 </r>
       <r>   20.2631    0.0000 </r>
       <r>   20.9883    0.0000 </r>
       <r>   21.3756    0.0000 </r>
       <r>   23.7549    0.0000 </r>
       <r>   23.9209    0.0000 </r>
       <r>   24.3615    0.0000 </r>
       <r>   25.5232    0.0000 </r>
       <r>   25.8352    0.0000 </r>
       <r>   26.0371    0.0000 </r>
       <r>   26.6815    0.0000 </r>
       <r>   27.3297    0.0000 </r>
       <r>   27.7865    0.0000 </r>
       <r>   28.2028    0.0000 </r>
       <r>   28.8106    0.0000 </r>
       <r>   28.8913    0.0000 </r>
       <r>   29.1926    0.0000 </r>
       <r>   29.9374    0.0000 </r>
       <r>   31.1801    0.0000 </r>
       <r>   31.2002    0.0000 </r>
       <r>   31.6596    0.0000 </r>
       <r>   31.7729    0.0000 </r>
       <r>   32.2633    0.0000 </r>
       <r>   34.0248    0.0000 </r>
       <r>   34.5824    0.0000 </r>
       <r>   34.8648    0.0000 </r>
       <r>   35.8374    0.0000 </r>
       <r>   36.4791    0.0000 </r>
       <r>   36.5066    0.0000 </r>
       <r>   37.7100    0.0000 </r>
       <r>   38.1291    0.0000 </r>
       <r>   39.3813    0.0000 </r>
       <r>   39.9819    0.0000 </r>
       <r>   40.8183    0.0000 </r>
       <r>   42.4243    0.0000 </r>
       <r>   42.7879    0.0000 </r>
       <r>   43.9598    0.0000 </r>
       <r>   45.0250    0.0000 </r>
       <r>   45.6155    0.0000 </r>
       <r>   47.2001    0.0000 </r>
       <r>   47.2998    0.0000 </r>
       <r>   48.4146    0.0000 </r>
       <r>   48.5583    0.0000 </r>
       <r>   48.8404    0.0000 </r>
       <r>   49.9348    0.0000 </r>
       <r>   50.9892    0.0000 </r>
       <r>   51.7743    0.0000 </r>
       <r>   53.0615    0.0000 </r>
       <r>   54.3197    0.0000 </r>
       <r>   54.5140    0.0000 </r>
       <r>   55.2171    0.0000 </r>
       <r>   55.5602    0.0000 </r>
       <r>   56.2224    0.0000 </r>
       <r>   56.7875    0.0000 </r>
       <r>   57.3854    0.0000 </r>
       <r>   57.9383    0.0000 </r>
       <r>   58.3939    0.0000 </r>
       <r>   58.5115    0.0000 </r>
       <r>   58.5929    0.0000 </r>
       <r>   58.6540    0.0000 </r>
       <r>   59.0810    0.0000 </r>
       <r>   59.1222    0.0000 </r>
       <r>   59.6461    0.0000 </r>
       <r>   60.3469    0.0000 </r>
       <r>   60.6037    0.0000 </r>
       <r>   60.9770    0.0000 </r>
       <r>   61.1128    0.0000 </r>
       <r>   61.2776    0.0000 </r>
       <r>   61.6138    0.0000 </r>
       <r>   61.9882    0.0000 </r>
       <r>   62.1274    0.0000 </r>
       <r>   62.5874    0.0000 </r>
       <r>   63.3879    0.0000 </r>
       <r>   63.9319    0.0000 </r>
       <r>   64.3098    0.0000 </r>
       <r>   64.4592    0.0000 </r>
       <r>   64.5083    0.0000 </r>
       <r>   64.9592    0.0000 </r>
       <r>   65.1508    0.0000 </r>
       <r>   65.6214    0.0000 </r>
       <r>   65.6839    0.0000 </r>
       <r>   66.9286    0.0000 </r>
       <r>   67.0328    0.0000 </r>
       <r>   67.4821    0.0000 </r>
       <r>   67.9192    0.0000 </r>
       <r>   68.2574    0.0000 </r>
       <r>   68.3387    0.0000 </r>
       <r>   68.5960    0.0000 </r>
       <r>   68.9234    0.0000 </r>
       <r>   69.8610    0.0000 </r>
       <r>   70.1509    0.0000 </r>
       <r>   70.2932    0.0000 </r>
       <r>   70.3376    0.0000 </r>
       <r>   70.4362    0.0000 </r>
       <r>   70.6823    0.0000 </r>
       <r>   71.0005    0.0000 </r>
       <r>   71.4070    0.0000 </r>
       <r>   71.5275    0.0000 </r>
       <r>   73.0643    0.0000 </r>
       <r>   73.0982    0.0000 </r>
       <r>   73.6781    0.0000 </r>
       <r>   73.9383    0.0000 </r>
       <r>   74.1650    0.0000 </r>
       <r>   74.6146    0.0000 </r>
       <r>   74.8138    0.0000 </r>
       <r>   75.0359    0.0000 </r>
      </set>
      <set comment="kpoint 10">
       <r>  -18.3380    1.0000 </r>
       <r>  -13.2758    1.0000 </r>
       <r>   -8.6684    1.0000 </r>
       <r>   -5.8596    1.0000 </r>
       <r>    1.4041    0.0000 </r>
       <r>    5.5127    0.0000 </r>
       <r>    6.1090    0.0000 </r>
       <r>    7.0144    0.0000 </r>
       <r>    7.6383    0.0000 </r>
       <r>    9.2123    0.0000 </r>
       <r>    9.9851    0.0000 </r>
       <r>   12.4300    0.0000 </r>
       <r>   12.9644    0.0000 </r>
       <r>   13.8227    0.0000 </r>
       <r>   13.9645    0.0000 </r>
       <r>   15.0725    0.0000 </r>
       <r>   15.7589    0.0000 </r>
       <r>   16.7413    0.0000 </r>
       <r>   16.7591    0.0000 </r>
       <r>   17.2085    0.0000 </r>
       <r>   18.8486    0.0000 </r>
       <r>   18.8714    0.0000 </r>
       <r>   19.2863    0.0000 </r>
       <r>   20.1011    0.0000 </r>
       <r>   21.6564    0.0000 </r>
       <r>   22.1907    0.0000 </r>
       <r>   24.2288    0.0000 </r>
       <r>   24.5376    0.0000 </r>
       <r>   24.7885    0.0000 </r>
[...]
       <r>   17.2415    0.0000 </r>
       <r>   18.0507    0.0000 </r>
       <r>   18.2650    0.0000 </r>
       <r>   19.8629    0.0000 </r>
       <r>   20.5972    0.0000 </r>
       <r>   20.6208    0.0000 </r>
       <r>   20.9970    0.0000 </r>
       <r>   23.1110    0.0000 </r>
       <r>   23.3975    0.0000 </r>
       <r>   25.5266    0.0000 </r>
       <r>   26.3537    0.0000 </r>
       <r>   26.5975    0.0000 </r>
       <r>   27.3399    0.0000 </r>
       <r>   27.7651    0.0000 </r>
       <r>   28.4943    0.0000 </r>
       <r>   28.5203    0.0000 </r>
       <r>   28.6256    0.0000 </r>
       <r>   28.8670    0.0000 </r>
       <r>   29.2575    0.0000 </r>
       <r>   30.4964    0.0000 </r>
       <r>   30.5770    0.0000 </r>
       <r>   30.7342    0.0000 </r>
       <r>   30.8346    0.0000 </r>
       <r>   31.3026    0.0000 </r>
       <r>   33.4489    0.0000 </r>
       <r>   33.5666    0.0000 </r>
       <r>   34.3299    0.0000 </r>
       <r>   34.7475    0.0000 </r>
       <r>   35.0987    0.0000 </r>
       <r>   35.7148    0.0000 </r>
       <r>   36.2608    0.0000 </r>
       <r>   36.9002    0.0000 </r>
       <r>   38.3521    0.0000 </r>
       <r>   39.0575    0.0000 </r>
       <r>   40.0428    0.0000 </r>
       <r>   40.0459    0.0000 </r>
       <r>   40.4198    0.0000 </r>
       <r>   42.3134    0.0000 </r>
       <r>   43.9116    0.0000 </r>
       <r>   44.9654    0.0000 </r>
       <r>   46.4466    0.0000 </r>
       <r>   46.6241    0.0000 </r>
       <r>   46.7049    0.0000 </r>
       <r>   46.8371    0.0000 </r>
       <r>   47.3287    0.0000 </r>
       <r>   48.1354    0.0000 </r>
       <r>   48.5037    0.0000 </r>
       <r>   50.6353    0.0000 </r>
       <r>   51.6422    0.0000 </r>
       <r>   52.6666    0.0000 </r>
       <r>   54.1783    0.0000 </r>
       <r>   54.4620    0.0000 </r>
       <r>   54.4878    0.0000 </r>
       <r>   55.2521    0.0000 </r>
       <r>   55.7931    0.0000 </r>
       <r>   56.1673    0.0000 </r>
       <r>   56.4988    0.0000 </r>
       <r>   57.0100    0.0000 </r>
       <r>   57.3275    0.0000 </r>
       <r>   57.4066    0.0000 </r>
       <r>   58.4455    0.0000 </r>
       <r>   59.0276    0.0000 </r>
       <r>   59.2949    0.0000 </r>
       <r>   59.3855    0.0000 </r>
       <r>   59.5335    0.0000 </r>
       <r>   60.5005    0.0000 </r>
       <r>   60.8996    0.0000 </r>
       <r>   61.4557    0.0000 </r>
       <r>   61.7159    0.0000 </r>
       <r>   61.7941    0.0000 </r>
       <r>   61.9462    0.0000 </r>
       <r>   62.4101    0.0000 </r>
       <r>   63.2262    0.0000 </r>
       <r>   63.3212    0.0000 </r>
       <r>   63.4313    0.0000 </r>
       <r>   63.4853    0.0000 </r>
       <r>   63.5840    0.0000 </r>
       <r>   63.9478    0.0000 </r>
       <r>   64.3719    0.0000 </r>
       <r>   64.4771    0.0000 </r>
       <r>   64.7663    0.0000 </r>
       <r>   64.9974    0.0000 </r>
       <r>   65.3738    0.0000 </r>
       <r>   65.6414    0.0000 </r>
       <r>   65.7377    0.0000 </r>
       <r>   65.9223    0.0000 </r>
       <r>   65.9238    0.0000 </r>
       <r>   66.1954    0.0000 </r>
       <r>   66.9445    0.0000 </r>
       <r>   67.4182    0.0000 </r>
       <r>   67.5706    0.0000 </r>
       <r>   68.2718    0.0000 </r>
       <r>   68.8896    0.0000 </r>
       <r>   69.2043    0.0000 </r>
       <r>   69.7652    0.0000 </r>
       <r>   69.7983    0.0000 </r>
       <r>   70.2162    0.0000 </r>
       <r>   70.5881    0.0000 </r>
       <r>   70.6831    0.0000 </r>
       <r>   70.9804    0.0000 </r>
       <r>   71.5274    0.0000 </r>
       <r>   71.7089    0.0000 </r>
       <r>   71.9100    0.0000 </r>
       <r>   73.0302    0.0000 </r>
       <r>   73.2738    0.0000 </r>
       <r>   73.3157    0.0000 </r>
       <r>   73.5399    0.0000 </r>
       <r>   74.3257    0.0000 </r>
       <r>   74.4242    0.0000 </r>
      </set>
     </set>
    </set>
   </array>
  </eigenvalues>
  <separator name="orbital magnetization" >
   <v name="MAGDIPOLOUT">      0.00000000      0.00000000      0.00000000</v>
  </separator>
  <dos>
   <i name="efermi">     -2.13991959 </i>
   <total>
    <array>
     <dimension dim="1">gridpoints</dimension>
     <dimension dim="2">spin</dimension>
     <field>energy</field>
     <field>total</field>
     <field>integrated</field>
     <set>
      <set comment="spin 1">
       <r>   -27.0565     0.0000     0.0000 </r>
       <r>   -26.6854     0.0000     0.0000 </r>
       <r>   -26.3142     0.0000     0.0000 </r>
       <r>   -25.9430     0.0000     0.0000 </r>
       <r>   -25.5718     0.0000     0.0000 </r>
       <r>   -25.2006     0.0000     0.0000 </r>
       <r>   -24.8294     0.0000     0.0000 </r>
       <r>   -24.4582     0.0000     0.0000 </r>
       <r>   -24.0870     0.0000     0.0000 </r>
       <r>   -23.7158     0.0000     0.0000 </r>
       <r>   -23.3446     0.0000     0.0000 </r>
       <r>   -22.9734     0.0000     0.0000 </r>
       <r>   -22.6022     0.0000     0.0000 </r>
       <r>   -22.2310     0.0000     0.0000 </r>
       <r>   -21.8598     0.1284     0.0477 </r>
       <r>   -21.4886     0.3111     0.1631 </r>
       <r>   -21.1174     0.2985     0.2739 </r>
       <r>   -20.7462     0.2708     0.3744 </r>
       <r>   -20.3750     0.3427     0.5016 </r>
       <r>   -20.0038     0.2579     0.5974 </r>
       <r>   -19.6326     0.3884     0.7415 </r>
       <r>   -19.2614     0.2378     0.8298 </r>
       <r>   -18.8902     0.3623     0.9643 </r>
       <r>   -18.5190     0.2439     1.0548 </r>
       <r>   -18.1478     0.3829     1.1969 </r>
       <r>   -17.7766     0.2922     1.3054 </r>
       <r>   -17.4054     0.2909     1.4133 </r>
       <r>   -17.0342     0.4576     1.5832 </r>
       <r>   -16.6630     0.3244     1.7036 </r>
       <r>   -16.2918     0.2560     1.7986 </r>
       <r>   -15.9206     0.3777     1.9388 </r>
       <r>   -15.5494     0.0947     1.9740 </r>
       <r>   -15.1782     0.3840     2.1165 </r>
       <r>   -14.8070     0.2631     2.2142 </r>
       <r>   -14.4358     0.4460     2.3798 </r>
       <r>   -14.0646     0.3144     2.4965 </r>
       <r>   -13.6934     0.4134     2.6499 </r>
       <r>   -13.3222     0.1697     2.7129 </r>
       <r>   -12.9510     0.3962     2.8600 </r>
       <r>   -12.5798     0.2657     2.9586 </r>
       <r>   -12.2087     0.4747     3.1348 </r>
       <r>   -11.8375     0.1918     3.2060 </r>
       <r>   -11.4663     0.5874     3.4241 </r>
       <r>   -11.0951     0.2627     3.5216 </r>
       <r>   -10.7239     0.3396     3.6476 </r>
       <r>   -10.3527     0.4776     3.8249 </r>
       <r>    -9.9815     0.4924     4.0077 </r>
       <r>    -9.6103     0.6712     4.2569 </r>
       <r>    -9.2391     0.7309     4.5281 </r>
       <r>    -8.8679     1.0262     4.9090 </r>
       <r>    -8.4967     0.7724     5.1958 </r>
       <r>    -8.1255     1.0141     5.5722 </r>
       <r>    -7.7543     0.6699     5.8209 </r>
       <r>    -7.3831     0.6950     6.0788 </r>
       <r>    -7.0119     0.5205     6.2720 </r>
       <r>    -6.6407     0.6560     6.5155 </r>
       <r>    -6.2695     0.5998     6.7382 </r>
       <r>    -5.8983     0.5258     6.9334 </r>
       <r>    -5.5271     0.5580     7.1405 </r>
       <r>    -5.1559     0.5805     7.3560 </r>
       <r>    -4.7847     0.2999     7.4673 </r>
       <r>    -4.4135     0.6360     7.7033 </r>
       <r>    -4.0423     0.1988     7.7771 </r>
       <r>    -3.6711     0.2156     7.8571 </r>
       <r>    -3.2999     0.2514     7.9505 </r>
       <r>    -2.9287     0.0095     7.9540 </r>
       <r>    -2.5575     0.1136     7.9962 </r>
       <r>    -2.1863     0.0104     8.0000 </r>
       <r>    -1.8151     0.0047     8.0018 </r>
       <r>    -1.4439     0.1074     8.0416 </r>
       <r>    -1.0727     0.0177     8.0482 </r>
       <r>    -0.7015     0.2898     8.1558 </r>
       <r>    -0.3303     0.4931     8.3388 </r>
       <r>     0.0409     0.3852     8.4818 </r>
       <r>     0.4121     0.3327     8.6053 </r>
       <r>     0.7833     0.3368     8.7303 </r>
       <r>     1.1545     0.2055     8.8066 </r>
       <r>     1.5257     0.5875     9.0246 </r>
       <r>     1.8969     0.4002     9.1732 </r>
       <r>     2.2681     0.6766     9.4244 </r>
       <r>     2.6392     0.7189     9.6912 </r>
       <r>     3.0104     0.8578    10.0096 </r>
       <r>     3.3816     0.8207    10.3142 </r>
       <r>     3.7528     0.6982    10.5734 </r>
       <r>     4.1240     1.0800    10.9743 </r>
       <r>     4.4952     0.8614    11.2940 </r>
       <r>     4.8664     0.9774    11.6568 </r>
       <r>     5.2376     1.3422    12.1550 </r>
       <r>     5.6088     1.6590    12.7708 </r>
       <r>     5.9800     1.2145    13.2217 </r>
       <r>     6.3512     1.9661    13.9515 </r>
       <r>     6.7224     2.1531    14.7507 </r>
       <r>     7.0936     1.9763    15.4843 </r>
       <r>     7.4648     1.6316    16.0900 </r>
       <r>     7.8360     1.7302    16.7322 </r>
       <r>     8.2072     2.3201    17.5934 </r>
       <r>     8.5784     1.5966    18.1861 </r>
       <r>     8.9496     1.9869    18.9236 </r>
       <r>     9.3208     2.1492    19.7214 </r>
       <r>     9.6920     2.4252    20.6216 </r>
       <r>    10.0632     1.7383    21.2669 </r>
       <r>    10.4344     1.6668    21.8856 </r>
       <r>    10.8056     2.1135    22.6701 </r>
       <r>    11.1768     2.4521    23.5804 </r>
       <r>    11.5480     1.8536    24.2684 </r>
       <r>    11.9192     2.7474    25.2883 </r>
       <r>    12.2904     1.9654    26.0178 </r>
       <r>    12.6616     1.4395    26.5521 </r>
       <r>    13.0328     2.3596    27.4280 </r>
       <r>    13.4040     1.7188    28.0660 </r>
       <r>    13.7752     1.8957    28.7697 </r>
       <r>    14.1464     2.3804    29.6533 </r>
       <r>    14.5176     2.6817    30.6488 </r>
       <r>    14.8888     2.7550    31.6714 </r>
       <r>    15.2600     2.1129    32.4557 </r>
       <r>    15.6312     1.9742    33.1885 </r>
       <r>    16.0024     2.1671    33.9930 </r>
       <r>    16.3736     2.0226    34.7438 </r>
       <r>    16.7448     2.5953    35.7071 </r>
       <r>    17.1159     2.5880    36.6678 </r>
       <r>    17.4871     1.9403    37.3880 </r>
       <r>    17.8583     2.5400    38.3309 </r>
       <r>    18.2295     2.0544    39.0935 </r>
       <r>    18.6007     2.5669    40.0463 </r>
       <r>    18.9719     2.6198    41.0187 </r>
       <r>    19.3431     2.5074    41.9495 </r>
       <r>    19.7143     2.2740    42.7936 </r>
       <r>    20.0855     2.9671    43.8950 </r>
       <r>    20.4567     1.9491    44.6185 </r>
       <r>    20.8279     2.4471    45.5269 </r>
       <r>    21.1991     3.1866    46.7097 </r>
       <r>    21.5703     3.1291    47.8713 </r>
       <r>    21.9415     3.0833    49.0158 </r>
       <r>    22.3127     2.8440    50.0715 </r>
       <r>    22.6839     2.8317    51.1226 </r>
       <r>    23.0551     3.2862    52.3424 </r>
       <r>    23.4263     2.7167    53.3508 </r>
       <r>    23.7975     3.0525    54.4839 </r>
       <r>    24.1687     2.7504    55.5048 </r>
       <r>    24.5399     3.3849    56.7613 </r>
       <r>    24.9111     2.5328    57.7015 </r>
       <r>    25.2823     2.9995    58.8149 </r>
       <r>    25.6535     2.7038    59.8186 </r>
       <r>    26.0247     1.9896    60.5571 </r>
       <r>    26.3959     3.1973    61.7439 </r>
       <r>    26.7671     3.0136    62.8626 </r>
       <r>    27.1383     2.6325    63.8398 </r>
       <r>    27.5095     2.9804    64.9461 </r>
       <r>    27.8807     2.4642    65.8608 </r>
       <r>    28.2519     2.4339    66.7643 </r>
       <r>    28.6231     3.1873    67.9474 </r>
       <r>    28.9943     3.1920    69.1323 </r>
       <r>    29.3655     3.6173    70.4750 </r>
       <r>    29.7367     2.6457    71.4571 </r>
       <r>    30.1079     3.2216    72.6529 </r>
       <r>    30.4791     2.6601    73.6404 </r>
       <r>    30.8503     2.6018    74.6062 </r>
       <r>    31.2215     2.7559    75.6292 </r>
       <r>    31.5926     3.6421    76.9811 </r>
       <r>    31.9638     3.9197    78.4361 </r>
       <r>    32.3350     3.0885    79.5825 </r>
       <r>    32.7062     2.8862    80.6539 </r>
       <r>    33.0774     2.1527    81.4530 </r>
       <r>    33.4486     2.4303    82.3551 </r>
       <r>    33.8198     2.8510    83.4134 </r>
       <r>    34.1910     3.0656    84.5513 </r>
       <r>    34.5622     3.8932    85.9965 </r>
       <r>    34.9334     3.2869    87.2166 </r>
       <r>    35.3046     2.9944    88.3281 </r>
       <r>    35.6758     3.6208    89.6721 </r>
       <r>    36.0470     3.0881    90.8184 </r>
       <r>    36.4182     3.4031    92.0816 </r>
       <r>    36.7894     2.9740    93.1856 </r>
       <r>    37.1606     2.8448    94.2416 </r>
       <r>    37.5318     2.6663    95.2313 </r>
       <r>    37.9030     3.4703    96.5194 </r>
       <r>    38.2742     4.2210    98.0863 </r>
       <r>    38.6454     3.5966    99.4213 </r>
       <r>    39.0166     3.9260   100.8786 </r>
       <r>    39.3878     3.5396   102.1925 </r>
       <r>    39.7590     3.4513   103.4737 </r>
       <r>    40.1302     3.0832   104.6181 </r>
       <r>    40.5014     4.3464   106.2315 </r>
       <r>    40.8726     2.9199   107.3154 </r>
       <r>    41.2438     4.0699   108.8261 </r>
       <r>    41.6150     3.9152   110.2794 </r>
       <r>    41.9862     3.5160   111.5846 </r>
       <r>    42.3574     3.5719   112.9105 </r>
       <r>    42.7286     4.0606   114.4177 </r>
       <r>    43.0998     3.3427   115.6585 </r>
       <r>    43.4710     3.9720   117.1329 </r>
       <r>    43.8422     3.5588   118.4539 </r>
       <r>    44.2134     3.4437   119.7322 </r>
       <r>    44.5846     4.0749   121.2448 </r>
       <r>    44.9558     3.1545   122.4158 </r>
       <r>    45.3270     3.8192   123.8334 </r>
       <r>    45.6982     4.3182   125.4363 </r>
       <r>    46.0693     3.7069   126.8123 </r>
       <r>    46.4405     3.2942   128.0352 </r>
       <r>    46.8117     3.9456   129.4997 </r>
       <r>    47.1829     4.7130   131.2492 </r>
       <r>    47.5541     3.9710   132.7232 </r>
       <r>    47.9253     3.5846   134.0538 </r>
       <r>    48.2965     4.2215   135.6209 </r>
       <r>    48.6677     3.8024   137.0323 </r>
       <r>    49.0389     3.8312   138.4544 </r>
       <r>    49.4101     2.8355   139.5069 </r>
       <r>    49.7813     4.1571   141.0501 </r>
       <r>    50.1525     4.1231   142.5805 </r>
       <r>    50.5237     4.0818   144.0957 </r>
       <r>    50.8949     3.3436   145.3368 </r>
       <r>    51.2661     4.9943   147.1907 </r>
       <r>    51.6373     3.2077   148.3814 </r>
       <r>    52.0085     4.2468   149.9578 </r>
       <r>    52.3797     3.7408   151.3464 </r>
       <r>    52.7509     3.1963   152.5328 </r>
       <r>    53.1221     3.9070   153.9831 </r>
       <r>    53.4933     4.0301   155.4791 </r>
       <r>    53.8645     4.3041   157.0767 </r>
       <r>    54.2357     3.4912   158.3727 </r>
       <r>    54.6069     4.6416   160.0956 </r>
       <r>    54.9781     4.7841   161.8715 </r>
       <r>    55.3493     3.7072   163.2476 </r>
       <r>    55.7205     4.2734   164.8338 </r>
       <r>    56.0917     3.8877   166.2770 </r>
       <r>    56.4629     4.1249   167.8081 </r>
       <r>    56.8341     3.5387   169.1217 </r>
       <r>    57.2053     4.1877   170.6762 </r>
       <r>    57.5765     3.8889   172.1197 </r>
       <r>    57.9477     3.6022   173.4569 </r>
       <r>    58.3189     4.9837   175.3068 </r>
       <r>    58.6901     4.5519   176.9964 </r>
       <r>    59.0613     4.8492   178.7965 </r>
       <r>    59.4325     4.0742   180.3088 </r>
       <r>    59.8037     3.7757   181.7103 </r>
       <r>    60.1749     4.0130   183.1999 </r>
       <r>    60.5461     4.3570   184.8173 </r>
       <r>    60.9172     4.5661   186.5122 </r>
       <r>    61.2884     4.6813   188.2498 </r>
       <r>    61.6596     5.0403   190.1208 </r>
       <r>    62.0308     4.7354   191.8786 </r>
       <r>    62.4020     3.7020   193.2527 </r>
       <r>    62.7732     3.7591   194.6481 </r>
       <r>    63.1444     4.0273   196.1431 </r>
       <r>    63.5156     5.0785   198.0282 </r>
       <r>    63.8868     5.1610   199.9439 </r>
       <r>    64.2580     4.1747   201.4936 </r>
       <r>    64.6292     4.7950   203.2734 </r>
       <r>    65.0004     4.1650   204.8195 </r>
       <r>    65.3716     4.7645   206.5881 </r>
       <r>    65.7428     3.9434   208.0518 </r>
       <r>    66.1140     4.7156   209.8022 </r>
       <r>    66.4852     4.2668   211.3860 </r>
       <r>    66.8564     5.0759   213.2702 </r>
       <r>    67.2276     3.8322   214.6927 </r>
       <r>    67.5988     4.2459   216.2688 </r>
       <r>    67.9700     5.3515   218.2552 </r>
       <r>    68.3412     4.5956   219.9611 </r>
       <r>    68.7124     4.5862   221.6635 </r>
       <r>    69.0836     4.0157   223.1541 </r>
       <r>    69.4548     5.2631   225.1077 </r>
       <r>    69.8260     4.2866   226.6989 </r>
       <r>    70.1972     3.9081   228.1495 </r>
       <r>    70.5684     4.1630   229.6949 </r>
       <r>    70.9396     4.5202   231.3727 </r>
       <r>    71.3108     4.6589   233.1021 </r>
       <r>    71.6820     5.1571   235.0164 </r>
       <r>    72.0532     4.0033   236.5025 </r>
       <r>    72.4244     4.1166   238.0305 </r>
       <r>    72.7956     4.8586   239.8340 </r>
       <r>    73.1668     4.9307   241.6643 </r>
       <r>    73.5380     4.8607   243.4686 </r>
       <r>    73.9092     4.7612   245.2359 </r>
       <r>    74.2804     4.8152   247.0233 </r>
       <r>    74.6516     4.1192   248.5523 </r>
       <r>    75.0228     4.7170   250.3033 </r>
       <r>    75.3939     4.1872   251.8576 </r>
       <r>    75.7651     3.1696   253.0341 </r>
       <r>    76.1363     2.4301   253.9362 </r>
       <r>    76.5075     1.7051   254.5691 </r>
       <r>    76.8787     1.1164   254.9835 </r>
       <r>    77.2499     1.1081   255.3948 </r>
       <r>    77.6211     0.3311   255.5177 </r>
       <r>    77.9923     0.4429   255.6822 </r>
       <r>    78.3635     0.1807   255.7492 </r>
       <r>    78.7347     0.3419   255.8761 </r>
       <r>    79.1059     0.2331   255.9627 </r>
       <r>    79.4771     0.1005   256.0000 </r>
       <r>    79.8483     0.0000   256.0000 </r>
       <r>    80.2195     0.0000   256.0000 </r>
       <r>    80.5907     0.0000   256.0000 </r>
       <r>    80.9619     0.0000   256.0000 </r>
       <r>    81.3331     0.0000   256.0000 </r>
       <r>    81.7043     0.0000   256.0000 </r>
       <r>    82.0755     0.0000   256.0000 </r>
       <r>    82.4467     0.0000   256.0000 </r>
       <r>    82.8179     0.0000   256.0000 </r>
       <r>    83.1891     0.0000   256.0000 </r>
       <r>    83.5603     0.0000   256.0000 </r>
       <r>    83.9315     0.0000   256.0000 </r>
       <r>    84.3027     0.0000   256.0000 </r>
      </set>
     </set>
    </array>
   </total>
  </dos>
 </calculation>
 <structure name="finalpos" >
  <crystal>
   <varray name="basis" >
    <v>       1.19718070      -2.13771446       0.00000000 </v>
    <v>       1.19718070       2.13771446       0.00000000 </v>
    <v>       0.00000000       0.00000000      15.52239374 </v>
   </varray>
   <i name="volume">     79.45076698 </i>
   <varray name="rec_basis" >
    <v>       0.41764789      -0.23389466       0.00000000 </v>
    <v>       0.41764789       0.23389466       0.00000000 </v>
    <v>       0.00000000       0.00000000       0.06442305 </v>
   </varray>
  </crystal>
  <varray name="positions" >
   <v>       0.66580657       0.33419343       0.50000000 </v>
   <v>       0.33419343       0.66580657       0.50000000 </v>
  </varray>
 </structure>
</modeling>
