unknown system                          
           1
     1.197181   -2.137714    0.000000
     1.197181    2.137714    0.000000
     0.000000    0.000000   15.522394
   C 
   2
Direct configuration=     1
   0.66666762  0.33333238  0.50000000
   0.33333238  0.66666762  0.50000000
Direct configuration=     2
   0.66568514  0.33431486  0.50000000
   0.33431486  0.66568514  0.50000000
Direct configuration=     3
   0.66580657  0.33419343  0.50000000
   0.33419343  0.66580657  0.50000000
